<?xml version="1.0" encoding="ISO-8859-1"?>
<modeling>
 <generator>
  <i name="program" type="string">vasp </i>
  <i name="version" type="string">5.4.4.18Apr17-6-g9f103f2a35  </i>
  <i name="subversion" type="string">(build Jul 23 2017 08:54:54) complex            parallel </i>
  <i name="platform" type="string">LinuxIFC </i>
  <i name="date" type="string">2024 10 29 </i>
  <i name="time" type="string">07:37:11 </i>
 </generator>
 <incar>
  <i type="string" name="PREC">normal</i>
  <i type="string" name="ALGO"> BSE</i>
  <i name="EDIFF">      0.00000001</i>
  <i name="ENCUT">    300.00000000</i>
  <i type="int" name="NBANDS">    24</i>
  <i type="int" name="ISMEAR">     0</i>
  <i name="SIGMA">      0.01000000</i>
  <v type="int" name="KPOINT_BSE">    -1     0     0     0</v>
  <i type="int" name="ANTIRES">     0</i>
  <i type="int" name="NBANDSO">     4</i>
  <i type="int" name="NBANDSV">     8</i>
  <i name="OMEGAMAX">     20.00000000</i>
  <i name="ENCUTGW">    150.00000000</i>
  <i type="logical" name="LHFCALC"> T  </i>
  <i type="string" name="GGA"> PS</i>
  <i name="HFSCREEN">      0.30000000</i>
  <i name="AEXX">      0.25000000</i>
  <i type="string" name="PRECFOCK">normal</i>
  <i name="OMEGAMAX">     20.00000000</i>
 </incar>
 <structure name="primitive_cell" >
  <crystal>
   <varray name="basis" >
    <v>       6.99746551      -2.05413500       0.00000000 </v>
    <v>       6.99746551       2.05413500       0.00000000 </v>
    <v>       6.39446567       0.00000000       3.50639459 </v>
   </varray>
   <i name="volume">    100.80000000 </i>
   <varray name="rec_basis" >
    <v>       0.07145444      -0.24341146      -0.13030849 </v>
    <v>       0.07145444       0.24341146      -0.13030849 </v>
    <v>       0.00000000       0.00000000       0.28519323 </v>
   </varray>
  </crystal>
  <varray name="positions" >
   <v>       0.00000000       0.00000000       0.00000000 </v>
   <v>       0.24403962       0.24403962       0.24403962 </v>
   <v>      -0.24403962      -0.24403962      -0.24403962 </v>
   <v>      -0.50000000      -0.50000000      -0.50000000 </v>
  </varray>
 </structure>
 <varray name="primitive_index" >
  <v type="int" >        1 </v>
  <v type="int" >        3 </v>
  <v type="int" >        4 </v>
  <v type="int" >        2 </v>
 </varray>
 <kpoints>
  <generation param="Gamma">
   <v type="int" name="divisions">       6        6        6 </v>
   <v name="usershift">      0.00000000       0.00000000       0.00000000 </v>
   <v name="genvec1">      0.16666667       0.00000000       0.00000000 </v>
   <v name="genvec2">      0.00000000       0.16666667       0.00000000 </v>
   <v name="genvec3">      0.00000000       0.00000000       0.16666667 </v>
   <v name="shift">      0.00000000       0.00000000       0.00000000 </v>
  </generation>
  <varray name="kpointlist" >
   <v>       0.00000000       0.00000000       0.00000000 </v>
   <v>       0.16666667      -0.00000000      -0.00000000 </v>
   <v>       0.33333333       0.00000000       0.00000000 </v>
   <v>       0.50000000       0.00000000      -0.00000000 </v>
   <v>       0.16666667       0.16666667      -0.00000000 </v>
   <v>       0.33333333       0.16666667      -0.00000000 </v>
   <v>       0.50000000       0.16666667      -0.00000000 </v>
   <v>      -0.33333333       0.16666667       0.00000000 </v>
   <v>      -0.16666667       0.16666667       0.00000000 </v>
   <v>       0.33333333       0.33333333       0.00000000 </v>
   <v>       0.50000000       0.33333333      -0.00000000 </v>
   <v>      -0.33333333       0.33333333       0.00000000 </v>
   <v>       0.50000000       0.50000000      -0.00000000 </v>
   <v>       0.16666667       0.16666667       0.16666667 </v>
   <v>       0.33333333       0.16666667       0.16666667 </v>
   <v>       0.50000000       0.16666667       0.16666667 </v>
   <v>      -0.33333333       0.16666667       0.16666667 </v>
   <v>      -0.16666667       0.16666667       0.16666667 </v>
   <v>       0.33333333       0.33333333       0.16666667 </v>
   <v>       0.50000000       0.33333333       0.16666667 </v>
   <v>      -0.33333333       0.33333333       0.16666667 </v>
   <v>      -0.16666667       0.33333333       0.16666667 </v>
   <v>       0.50000000       0.50000000       0.16666667 </v>
   <v>      -0.33333333       0.50000000       0.16666667 </v>
   <v>      -0.16666667       0.50000000       0.16666667 </v>
   <v>      -0.33333333      -0.33333333       0.16666667 </v>
   <v>       0.33333333       0.33333333       0.33333333 </v>
   <v>       0.50000000       0.33333333       0.33333333 </v>
   <v>      -0.33333333       0.33333333       0.33333333 </v>
   <v>       0.50000000       0.50000000       0.33333333 </v>
   <v>      -0.33333333       0.50000000       0.33333333 </v>
   <v>       0.50000000       0.50000000       0.50000000 </v>
  </varray>
  <varray name="weights" >
   <v>       0.00462963 </v>
   <v>       0.02777778 </v>
   <v>       0.02777778 </v>
   <v>       0.01388889 </v>
   <v>       0.02777778 </v>
   <v>       0.05555556 </v>
   <v>       0.05555556 </v>
   <v>       0.05555556 </v>
   <v>       0.02777778 </v>
   <v>       0.02777778 </v>
   <v>       0.05555556 </v>
   <v>       0.02777778 </v>
   <v>       0.01388889 </v>
   <v>       0.00925926 </v>
   <v>       0.02777778 </v>
   <v>       0.02777778 </v>
   <v>       0.02777778 </v>
   <v>       0.02777778 </v>
   <v>       0.02777778 </v>
   <v>       0.05555556 </v>
   <v>       0.05555556 </v>
   <v>       0.05555556 </v>
   <v>       0.02777778 </v>
   <v>       0.05555556 </v>
   <v>       0.02777778 </v>
   <v>       0.02777778 </v>
   <v>       0.00925926 </v>
   <v>       0.02777778 </v>
   <v>       0.02777778 </v>
   <v>       0.02777778 </v>
   <v>       0.02777778 </v>
   <v>       0.00462963 </v>
  </varray>
 </kpoints>
 <parameters>
  <separator name="general" >
   <i type="string" name="SYSTEM">unknown system</i>
   <i type="logical" name="LCOMPAT"> F  </i>
  </separator>
  <separator name="electronic" >
   <i type="string" name="PREC">normal</i>
   <i name="ENMAX">    300.00000000</i>
   <i name="ENAUG">    470.88900000</i>
   <i name="EDIFF">      0.00000001</i>
   <i type="int" name="IALGO">    38</i>
   <i type="int" name="IWAVPR">    10</i>
   <i type="int" name="NBANDS">    24</i>
   <i name="NELECT">     30.00000000</i>
   <i type="int" name="TURBO">     0</i>
   <i type="int" name="IRESTART">     0</i>
   <i type="int" name="NREBOOT">     0</i>
   <i type="int" name="NMIN">     0</i>
   <i name="EREF">      0.00000000</i>
   <separator name="electronic smearing" >
    <i type="int" name="ISMEAR">     0</i>
    <i name="SIGMA">      0.01000000</i>
    <i name="KSPACING">      0.50000000</i>
    <i type="logical" name="KGAMMA"> T  </i>
   </separator>
   <separator name="electronic projectors" >
    <i type="logical" name="LREAL"> F  </i>
    <v name="ROPT">      0.00000000      0.00000000      0.00000000</v>
    <i type="int" name="LMAXPAW">  -100</i>
    <i type="int" name="LMAXMIX">     2</i>
    <i type="logical" name="NLSPLINE"> F  </i>
   </separator>
   <separator name="electronic startup" >
    <i type="int" name="ISTART">     1</i>
    <i type="int" name="ICHARG">     0</i>
    <i type="int" name="INIWAV">     1</i>
   </separator>
   <separator name="electronic spin" >
    <i type="int" name="ISPIN">     1</i>
    <i type="logical" name="LNONCOLLINEAR"> F  </i>
    <v name="MAGMOM">      1.00000000      1.00000000      1.00000000      1.00000000</v>
    <i name="NUPDOWN">     -1.00000000</i>
    <i type="logical" name="LSORBIT"> F  </i>
    <v name="SAXIS">      0.00000000      0.00000000      1.00000000</v>
    <i type="logical" name="LSPIRAL"> F  </i>
    <v name="QSPIRAL">      0.00000000      0.00000000      0.00000000</v>
    <i type="logical" name="LZEROZ"> F  </i>
   </separator>
   <separator name="electronic exchange-correlation" >
    <i type="logical" name="LASPH"> F  </i>
    <i type="logical" name="LMETAGGA"> F  </i>
   </separator>
   <separator name="electronic convergence" >
    <i type="int" name="NELM">    60</i>
    <i type="int" name="NELMDL">     0</i>
    <i type="int" name="NELMIN">     2</i>
    <i name="ENINI">    300.00000000</i>
    <separator name="electronic convergence detail" >
     <i type="logical" name="LDIAG"> T  </i>
     <i type="logical" name="LSUBROT"> F  </i>
     <i name="WEIMIN">      0.00000000</i>
     <i name="EBREAK">      0.00000000</i>
     <i name="DEPER">      0.30000000</i>
     <i type="int" name="NRMM">     4</i>
     <i name="TIME">      0.40000000</i>
    </separator>
   </separator>
   <separator name="electronic mixer" >
    <i name="AMIX">      0.40000000</i>
    <i name="BMIX">      1.00000000</i>
    <i name="AMIN">      0.10000000</i>
    <i name="AMIX_MAG">      1.60000000</i>
    <i name="BMIX_MAG">      1.00000000</i>
    <separator name="electronic mixer details" >
     <i type="int" name="IMIX">     1</i>
     <i type="logical" name="MIXFIRST"> F  </i>
     <i type="int" name="MAXMIX">   -45</i>
     <i name="WC">    100.00000000</i>
     <i type="int" name="INIMIX">     1</i>
     <i type="int" name="MIXPRE">     1</i>
     <i type="int" name="MREMOVE">     5</i>
    </separator>
   </separator>
   <separator name="electronic dipolcorrection" >
    <i type="logical" name="LDIPOL"> F  </i>
    <i type="logical" name="LMONO"> F  </i>
    <i type="int" name="IDIPOL">     0</i>
    <i name="EPSILON">      1.00000000</i>
    <v name="DIPOL">   -100.00000000   -100.00000000   -100.00000000</v>
    <i name="EFIELD">      0.00000000</i>
   </separator>
  </separator>
  <separator name="grids" >
   <i type="int" name="NGX">    32</i>
   <i type="int" name="NGY">    32</i>
   <i type="int" name="NGZ">    32</i>
   <i type="int" name="NGXF">    64</i>
   <i type="int" name="NGYF">    64</i>
   <i type="int" name="NGZF">    64</i>
   <i type="logical" name="ADDGRID"> F  </i>
  </separator>
  <separator name="ionic" >
   <i type="int" name="NSW">     0</i>
   <i type="int" name="IBRION">    -1</i>
   <i type="int" name="MDALGO">     0</i>
   <i type="int" name="ISIF">     0</i>
   <i name="PSTRESS">      0.00000000</i>
   <i name="EDIFFG">      0.00000010</i>
   <i type="int" name="NFREE">     0</i>
   <i name="POTIM">      0.50000000</i>
   <i name="SMASS">     -3.00000000</i>
   <i name="SCALEE">      1.00000000</i>
  </separator>
  <separator name="ionic md" >
   <i name="TEBEG">      0.00010000</i>
   <i name="TEEND">      0.00010000</i>
   <i type="int" name="NBLOCK">     1</i>
   <i type="int" name="KBLOCK">     1</i>
   <i type="int" name="NPACO">   256</i>
   <i name="APACO">     16.00000000</i>
  </separator>
  <separator name="symmetry" >
   <i type="int" name="ISYM">     3</i>
   <i name="SYMPREC">      0.00001000</i>
  </separator>
  <separator name="dos" >
   <i type="int" name="LORBIT">     0</i>
   <v name="RWIGS">     -1.00000000     -1.00000000     -1.00000000</v>
   <i type="int" name="NEDOS">   301</i>
   <i name="EMIN">     10.00000000</i>
   <i name="EMAX">    -10.00000000</i>
   <i name="EFERMI">      0.00000000</i>
  </separator>
  <separator name="writing" >
   <i type="int" name="NWRITE">     2</i>
   <i type="logical" name="LWAVE"> T  </i>
   <i type="logical" name="LDOWNSAMPLE"> F  </i>
   <i type="logical" name="LCHARG"> T  </i>
   <i type="logical" name="LPARD"> F  </i>
   <i type="logical" name="LVTOT"> F  </i>
   <i type="logical" name="LVHAR"> F  </i>
   <i type="logical" name="LELF"> F  </i>
   <i type="logical" name="LOPTICS"> F  </i>
   <v name="STM">      0.00000000      0.00000000      0.00000000      0.00000000      0.00000000      0.00000000      0.00000000</v>
  </separator>
  <separator name="performance" >
   <i type="int" name="NPAR">    24</i>
   <i type="int" name="NSIM">     4</i>
   <i type="int" name="NBLK">    -1</i>
   <i type="logical" name="LPLANE"> T  </i>
   <i type="logical" name="LSCALAPACK"> T  </i>
   <i type="logical" name="LSCAAWARE"> F  </i>
   <i type="logical" name="LSCALU"> F  </i>
   <i type="logical" name="LASYNC"> F  </i>
   <i type="logical" name="LORBITALREAL"> F  </i>
  </separator>
  <separator name="miscellaneous" >
   <i type="int" name="IDIOT">     3</i>
   <i type="int" name="ISPECIAL">     0</i>
   <i type="logical" name="LMUSIC"> F  </i>
   <v name="POMASS">     22.99000000     88.90600000     78.96000000</v>
   <v name="DARWINR">      0.00000000      0.00000000      0.00000000</v>
   <v name="DARWINV">      1.00000000      1.00000000      1.00000000</v>
   <i type="logical" name="LCORR"> T  </i>
  </separator>
  <i type="logical" name="GGA_COMPAT"> T  </i>
  <i type="logical" name="LBERRY"> F  </i>
  <i type="int" name="ICORELEVEL">     0</i>
  <i type="logical" name="LDAU"> F  </i>
  <i type="int" name="I_CONSTRAINED_M">     0</i>
  <separator name="electronic exchange-correlation" >
   <i type="string" name="GGA">PS</i>
   <i type="int" name="VOSKOWN">     0</i>
   <i type="logical" name="LHFCALC"> T  </i>
   <i type="string" name="PRECFOCK">normal</i>
   <i type="logical" name="LSYMGRAD"> F  </i>
   <i type="logical" name="LHFONE"> F  </i>
   <i type="logical" name="LRHFCALC"> F  </i>
   <i type="logical" name="LTHOMAS"> F  </i>
   <i type="logical" name="LMODELHF"> F  </i>
   <i name="ENCUT4O">     -1.00000000</i>
   <i type="int" name="EXXOEP">     0</i>
   <i type="int" name="FOURORBIT">     0</i>
   <i name="AEXX">      1.00000000</i>
   <i name="HFALPHA">     -1.00000000</i>
   <i name="MCALPHA">      0.00000000</i>
   <i name="ALDAX">      0.00000000</i>
   <i name="AGGAX">      0.00000000</i>
   <i name="ALDAC">      0.00000000</i>
   <i name="AGGAC">      0.00000000</i>
   <i type="int" name="NKREDX">     1</i>
   <i type="int" name="NKREDY">     1</i>
   <i type="int" name="NKREDZ">     1</i>
   <i type="logical" name="SHIFTRED"> F  </i>
   <i type="logical" name="ODDONLY"> F  </i>
   <i type="logical" name="EVENONLY"> F  </i>
   <i type="int" name="LMAXFOCK">     4</i>
   <i type="int" name="NMAXFOCKAE">     1</i>
   <i type="logical" name="LFOCKAEDFT"> F  </i>
   <i name="HFSCREEN">      0.00000000</i>
   <i name="HFSCREENC">      0.30000000</i>
   <i type="int" name="NBANDSGWLOW">     1</i>
  </separator>
  <separator name="vdW DFT" >
   <i type="logical" name="LUSE_VDW"> F  </i>
   <i name="Zab_VDW">     -0.84910000</i>
   <i name="PARAM1">      0.12340000</i>
   <i name="PARAM2">      1.00000000</i>
   <i name="PARAM3">      0.00000000</i>
  </separator>
  <separator name="model GW" >
   <i type="int" name="MODEL_GW">     0</i>
   <i name="MODEL_EPS0">     15.12000000</i>
   <i name="MODEL_ALPHA">      1.00000000</i>
  </separator>
  <separator name="linear response parameters" >
   <i type="logical" name="LEPSILON"> F  </i>
   <i type="logical" name="LRPA"> F  </i>
   <i type="logical" name="LNABLA"> F  </i>
   <i type="logical" name="LVEL"> F  </i>
   <i type="int" name="KINTER">     0</i>
   <i name="CSHIFT">      0.10000000</i>
   <i name="OMEGAMAX">     20.00000000</i>
   <i name="DEG_THRESHOLD">      0.00200000</i>
   <i name="RTIME">     -0.10000000</i>
   <i name="WPLASMAI">      0.00000000</i>
   <v name="DFIELD">      0.00000000      0.00000000      0.00000000</v>
   <v name="WPLASMA">      0.00000000      0.00000000      0.00000000      0.00000000      0.00000000      0.00000000      0.00000000      0.00000000      0.00000000</v>
  </separator>
  <separator name="orbital magnetization" >
   <i type="logical" name="NUCIND"> F  </i>
   <v name="MAGPOS">      0.00000000      0.00000000      0.00000000</v>
   <i type="logical" name="LNICSALL"> T  </i>
   <i type="logical" name="ORBITALMAG"> F  </i>
   <i type="logical" name="LMAGBLOCH"> F  </i>
   <i type="logical" name="LCHIMAG"> F  </i>
   <i type="logical" name="LGAUGE"> T  </i>
   <i type="int" name="MAGATOM">     0</i>
   <v name="MAGDIPOL">      0.00000000      0.00000000      0.00000000</v>
   <v name="AVECCONST">      0.00000000      0.00000000      0.00000000</v>
  </separator>
  <separator name="response functions" >
   <i type="logical" name="LADDER"> T  </i>
   <i type="logical" name="LRPAFORCE"> F  </i>
   <i type="logical" name="LFXC"> F  </i>
   <i type="logical" name="LHARTREE"> T  </i>
   <i type="int" name="IBSE">     0</i>
   <v type="int" name="KPOINT">    -1     0     0     0</v>
   <i type="logical" name="LTCTE"> F  </i>
   <i type="logical" name="LTETE"> F  </i>
   <i type="logical" name="LTRIPLET"> F  </i>
   <i type="logical" name="LFXCEPS"> F  </i>
   <i type="logical" name="LFXHEG"> F  </i>
   <i type="int" name="NATURALO">     2</i>
   <i type="logical" name="L2ORDER"> F  </i>
   <i type="logical" name="LMP2LT"> F  </i>
   <i type="logical" name="LUSEW"> T  </i>
   <i name="ENCUTGW">    150.00000000</i>
   <i name="ENCUTGWSOFT">    150.00000000</i>
   <i name="ENCUTLF">     -1.00000000</i>
   <i type="int" name="LMAXMP2">    -1</i>
   <i name="SCISSOR">      0.00000000</i>
   <i type="int" name="NOMEGA">     0</i>
   <i type="int" name="NOMEGAR">     0</i>
   <i type="int" name="NBANDSGW">    -1</i>
   <i type="int" name="NBANDSO">     4</i>
   <i type="int" name="NBANDSV">     8</i>
   <i type="int" name="NELM">     1</i>
   <i type="int" name="NELMHF">     1</i>
   <i type="int" name="DIM">     3</i>
   <i type="int" name="ANTIRES">     0</i>
   <i name="OMEGAMAX">     20.00000000</i>
   <i name="OMEGAMIN">    -30.00000000</i>
   <i name="OMEGATL">   -200.00000000</i>
   <i type="int" name="OMEGAGRID">   140</i>
   <i name="CSHIFT">     -0.10000000</i>
   <i type="logical" name="SELFENERGY"> F  </i>
   <i type="logical" name="LSPECTRAL"> F  </i>
   <i type="logical" name="LSPECTRALGW"> F  </i>
   <i type="logical" name="LSINGLES"> F  </i>
   <i type="logical" name="LFERMIGW"> F  </i>
   <i type="logical" name="ODDONLYGW"> F  </i>
   <i type="logical" name="EVENONLYGW"> F  </i>
   <i type="int" name="NKREDLFX">     1</i>
   <i type="int" name="NKREDLFY">     1</i>
   <i type="int" name="NKREDLFZ">     1</i>
   <i type="int" name="MAXMEM">  2800</i>
   <i type="int" name="TELESCOPE">     0</i>
   <i type="int" name="TAUPAR">     1</i>
   <i type="int" name="OMEGAPAR">    -1</i>
   <i name="LAMBDA">      1.00000000</i>
  </separator>
  <separator name="External order field" >
   <i name="OFIELD_KAPPA">      0.00000000</i>
   <v name="OFIELD_K">      0.00000000      0.00000000      0.00000000</v>
   <i name="OFIELD_Q6_NEAR">      0.00000000</i>
   <i name="OFIELD_Q6_FAR">      0.00000000</i>
   <i name="OFIELD_A">      0.00000000</i>
  </separator>
 </parameters>
 <atominfo>
  <atoms>       4 </atoms>
  <types>       3 </types>
  <array name="atoms" >
   <dimension dim="1">ion</dimension>
   <field type="string">element</field>
   <field type="int">atomtype</field>
   <set>
    <rc><c>Na</c><c>   1</c></rc>
    <rc><c>Y </c><c>   2</c></rc>
    <rc><c>Se</c><c>   3</c></rc>
    <rc><c>Se</c><c>   3</c></rc>
   </set>
  </array>
  <array name="atomtypes" >
   <dimension dim="1">type</dimension>
   <field type="int">atomspertype</field>
   <field type="string">element</field>
   <field>mass</field>
   <field>valence</field>
   <field type="string">pseudopotential</field>
   <set>
    <rc><c>   1</c><c>Na</c><c>     22.99000000</c><c>      7.00000000</c><c>  PAW_PBE Na_pv 19Sep2006               </c></rc>
    <rc><c>   1</c><c>Y </c><c>     88.90600000</c><c>     11.00000000</c><c>  PAW_PBE Y_sv 25May2007                </c></rc>
    <rc><c>   2</c><c>Se</c><c>     78.96000000</c><c>      6.00000000</c><c>  PAW_PBE Se 06Sep2000                  </c></rc>
   </set>
  </array>
 </atominfo>
 <structure name="initialpos" >
  <crystal>
   <varray name="basis" >
    <v>       6.99746551      -2.05413500       0.00000000 </v>
    <v>       6.99746551       2.05413500       0.00000000 </v>
    <v>       6.39446567       0.00000000       3.50639459 </v>
   </varray>
   <i name="volume">    100.80000000 </i>
   <varray name="rec_basis" >
    <v>       0.07145444      -0.24341146      -0.13030849 </v>
    <v>       0.07145444       0.24341146      -0.13030849 </v>
    <v>       0.00000000       0.00000000       0.28519323 </v>
   </varray>
  </crystal>
  <varray name="positions" >
   <v>       0.00000000       0.00000000       0.00000000 </v>
   <v>       0.50000000       0.50000000       0.50000000 </v>
   <v>       0.24403962       0.24403962       0.24403962 </v>
   <v>       0.75596038       0.75596038       0.75596038 </v>
  </varray>
 </structure>
 <kpoints>
  <generation param="Gamma">
   <v type="int" name="divisions">       6        6        6 </v>
   <v name="usershift">      0.00000000       0.00000000       0.00000000 </v>
   <v name="genvec1">      0.16666667       0.00000000       0.00000000 </v>
   <v name="genvec2">      0.00000000       0.16666667       0.00000000 </v>
   <v name="genvec3">      0.00000000       0.00000000       0.16666667 </v>
   <v name="shift">      0.00000000       0.00000000       0.00000000 </v>
  </generation>
  <varray name="kpointlist" >
   <v>       0.00000000       0.00000000       0.00000000 </v>
   <v>       0.16666667      -0.00000000      -0.00000000 </v>
   <v>       0.33333333       0.00000000       0.00000000 </v>
   <v>       0.50000000       0.00000000      -0.00000000 </v>
   <v>      -0.33333333      -0.00000000       0.00000000 </v>
   <v>      -0.16666667       0.00000000       0.00000000 </v>
   <v>      -0.00000000       0.16666667      -0.00000000 </v>
   <v>       0.16666667       0.16666667      -0.00000000 </v>
   <v>       0.33333333       0.16666667      -0.00000000 </v>
   <v>       0.50000000       0.16666667      -0.00000000 </v>
   <v>      -0.33333333       0.16666667       0.00000000 </v>
   <v>      -0.16666667       0.16666667       0.00000000 </v>
   <v>       0.00000000       0.33333333       0.00000000 </v>
   <v>       0.16666667       0.33333333      -0.00000000 </v>
   <v>       0.33333333       0.33333333       0.00000000 </v>
   <v>       0.50000000       0.33333333      -0.00000000 </v>
   <v>      -0.33333333       0.33333333       0.00000000 </v>
   <v>      -0.16666667       0.33333333       0.00000000 </v>
   <v>       0.00000000       0.50000000      -0.00000000 </v>
   <v>       0.16666667       0.50000000      -0.00000000 </v>
   <v>       0.33333333       0.50000000      -0.00000000 </v>
   <v>       0.50000000       0.50000000      -0.00000000 </v>
   <v>      -0.33333333       0.50000000      -0.00000000 </v>
   <v>      -0.16666667       0.50000000      -0.00000000 </v>
   <v>      -0.00000000      -0.33333333       0.00000000 </v>
   <v>       0.16666667      -0.33333333       0.00000000 </v>
   <v>       0.33333333      -0.33333333       0.00000000 </v>
   <v>       0.50000000      -0.33333333      -0.00000000 </v>
   <v>      -0.33333333      -0.33333333       0.00000000 </v>
   <v>      -0.16666667      -0.33333333       0.00000000 </v>
   <v>       0.00000000      -0.16666667       0.00000000 </v>
   <v>       0.16666667      -0.16666667       0.00000000 </v>
   <v>       0.33333333      -0.16666667       0.00000000 </v>
   <v>       0.50000000      -0.16666667      -0.00000000 </v>
   <v>      -0.33333333      -0.16666667       0.00000000 </v>
   <v>      -0.16666667      -0.16666667       0.00000000 </v>
   <v>       0.00000000       0.00000000       0.16666667 </v>
   <v>       0.16666667      -0.00000000       0.16666667 </v>
   <v>       0.33333333       0.00000000       0.16666667 </v>
   <v>       0.50000000       0.00000000       0.16666667 </v>
   <v>      -0.33333333      -0.00000000       0.16666667 </v>
   <v>      -0.16666667       0.00000000       0.16666667 </v>
   <v>      -0.00000000       0.16666667       0.16666667 </v>
   <v>       0.16666667       0.16666667       0.16666667 </v>
   <v>       0.33333333       0.16666667       0.16666667 </v>
   <v>       0.50000000       0.16666667       0.16666667 </v>
   <v>      -0.33333333       0.16666667       0.16666667 </v>
   <v>      -0.16666667       0.16666667       0.16666667 </v>
   <v>       0.00000000       0.33333333       0.16666667 </v>
   <v>       0.16666667       0.33333333       0.16666667 </v>
   <v>       0.33333333       0.33333333       0.16666667 </v>
   <v>       0.50000000       0.33333333       0.16666667 </v>
   <v>      -0.33333333       0.33333333       0.16666667 </v>
   <v>      -0.16666667       0.33333333       0.16666667 </v>
   <v>       0.00000000       0.50000000       0.16666667 </v>
   <v>       0.16666667       0.50000000       0.16666667 </v>
   <v>       0.33333333       0.50000000       0.16666667 </v>
   <v>       0.50000000       0.50000000       0.16666667 </v>
   <v>      -0.33333333       0.50000000       0.16666667 </v>
   <v>      -0.16666667       0.50000000       0.16666667 </v>
   <v>      -0.00000000      -0.33333333       0.16666667 </v>
   <v>       0.16666667      -0.33333333       0.16666667 </v>
   <v>       0.33333333      -0.33333333       0.16666667 </v>
   <v>       0.50000000      -0.33333333       0.16666667 </v>
   <v>      -0.33333333      -0.33333333       0.16666667 </v>
   <v>      -0.16666667      -0.33333333       0.16666667 </v>
   <v>       0.00000000      -0.16666667       0.16666667 </v>
   <v>       0.16666667      -0.16666667       0.16666667 </v>
   <v>       0.33333333      -0.16666667       0.16666667 </v>
   <v>       0.50000000      -0.16666667       0.16666667 </v>
   <v>      -0.33333333      -0.16666667       0.16666667 </v>
   <v>      -0.16666667      -0.16666667       0.16666667 </v>
   <v>       0.00000000       0.00000000       0.33333333 </v>
   <v>       0.16666667      -0.00000000       0.33333333 </v>
   <v>       0.33333333       0.00000000       0.33333333 </v>
   <v>       0.50000000       0.00000000       0.33333333 </v>
   <v>      -0.33333333      -0.00000000       0.33333333 </v>
   <v>      -0.16666667       0.00000000       0.33333333 </v>
   <v>      -0.00000000       0.16666667       0.33333333 </v>
   <v>       0.16666667       0.16666667       0.33333333 </v>
   <v>       0.33333333       0.16666667       0.33333333 </v>
   <v>       0.50000000       0.16666667       0.33333333 </v>
   <v>      -0.33333333       0.16666667       0.33333333 </v>
   <v>      -0.16666667       0.16666667       0.33333333 </v>
   <v>       0.00000000       0.33333333       0.33333333 </v>
   <v>       0.16666667       0.33333333       0.33333333 </v>
   <v>       0.33333333       0.33333333       0.33333333 </v>
   <v>       0.50000000       0.33333333       0.33333333 </v>
   <v>      -0.33333333       0.33333333       0.33333333 </v>
   <v>      -0.16666667       0.33333333       0.33333333 </v>
   <v>       0.00000000       0.50000000       0.33333333 </v>
   <v>       0.16666667       0.50000000       0.33333333 </v>
   <v>       0.33333333       0.50000000       0.33333333 </v>
   <v>       0.50000000       0.50000000       0.33333333 </v>
   <v>      -0.33333333       0.50000000       0.33333333 </v>
   <v>      -0.16666667       0.50000000       0.33333333 </v>
   <v>      -0.00000000      -0.33333333       0.33333333 </v>
   <v>       0.16666667      -0.33333333       0.33333333 </v>
   <v>       0.33333333      -0.33333333       0.33333333 </v>
   <v>       0.50000000      -0.33333333       0.33333333 </v>
   <v>      -0.33333333      -0.33333333       0.33333333 </v>
   <v>      -0.16666667      -0.33333333       0.33333333 </v>
   <v>       0.00000000      -0.16666667       0.33333333 </v>
   <v>       0.16666667      -0.16666667       0.33333333 </v>
   <v>       0.33333333      -0.16666667       0.33333333 </v>
   <v>       0.50000000      -0.16666667       0.33333333 </v>
   <v>      -0.33333333      -0.16666667       0.33333333 </v>
   <v>      -0.16666667      -0.16666667       0.33333333 </v>
   <v>       0.00000000       0.00000000       0.50000000 </v>
   <v>       0.16666667      -0.00000000       0.50000000 </v>
   <v>       0.33333333       0.00000000       0.50000000 </v>
   <v>       0.50000000       0.00000000       0.50000000 </v>
   <v>      -0.33333333      -0.00000000       0.50000000 </v>
   <v>      -0.16666667       0.00000000       0.50000000 </v>
   <v>      -0.00000000       0.16666667       0.50000000 </v>
   <v>       0.16666667       0.16666667       0.50000000 </v>
   <v>       0.33333333       0.16666667       0.50000000 </v>
   <v>       0.50000000       0.16666667       0.50000000 </v>
   <v>      -0.33333333       0.16666667       0.50000000 </v>
   <v>      -0.16666667       0.16666667       0.50000000 </v>
   <v>       0.00000000       0.33333333       0.50000000 </v>
   <v>       0.16666667       0.33333333       0.50000000 </v>
   <v>       0.33333333       0.33333333       0.50000000 </v>
   <v>       0.50000000       0.33333333       0.50000000 </v>
   <v>      -0.33333333       0.33333333       0.50000000 </v>
   <v>      -0.16666667       0.33333333       0.50000000 </v>
   <v>       0.00000000       0.50000000       0.50000000 </v>
   <v>       0.16666667       0.50000000       0.50000000 </v>
   <v>       0.33333333       0.50000000       0.50000000 </v>
   <v>       0.50000000       0.50000000       0.50000000 </v>
   <v>      -0.33333333       0.50000000       0.50000000 </v>
   <v>      -0.16666667       0.50000000       0.50000000 </v>
   <v>      -0.00000000      -0.33333333       0.50000000 </v>
   <v>       0.16666667      -0.33333333       0.50000000 </v>
   <v>       0.33333333      -0.33333333       0.50000000 </v>
   <v>       0.50000000      -0.33333333       0.50000000 </v>
   <v>      -0.33333333      -0.33333333       0.50000000 </v>
   <v>      -0.16666667      -0.33333333       0.50000000 </v>
   <v>       0.00000000      -0.16666667       0.50000000 </v>
   <v>       0.16666667      -0.16666667       0.50000000 </v>
   <v>       0.33333333      -0.16666667       0.50000000 </v>
   <v>       0.50000000      -0.16666667       0.50000000 </v>
   <v>      -0.33333333      -0.16666667       0.50000000 </v>
   <v>      -0.16666667      -0.16666667       0.50000000 </v>
   <v>       0.00000000       0.00000000      -0.33333333 </v>
   <v>       0.16666667      -0.00000000      -0.33333333 </v>
   <v>       0.33333333       0.00000000      -0.33333333 </v>
   <v>       0.50000000       0.00000000      -0.33333333 </v>
   <v>      -0.33333333      -0.00000000      -0.33333333 </v>
   <v>      -0.16666667       0.00000000      -0.33333333 </v>
   <v>      -0.00000000       0.16666667      -0.33333333 </v>
   <v>       0.16666667       0.16666667      -0.33333333 </v>
   <v>       0.33333333       0.16666667      -0.33333333 </v>
   <v>       0.50000000       0.16666667      -0.33333333 </v>
   <v>      -0.33333333       0.16666667      -0.33333333 </v>
   <v>      -0.16666667       0.16666667      -0.33333333 </v>
   <v>       0.00000000       0.33333333      -0.33333333 </v>
   <v>       0.16666667       0.33333333      -0.33333333 </v>
   <v>       0.33333333       0.33333333      -0.33333333 </v>
   <v>       0.50000000       0.33333333      -0.33333333 </v>
   <v>      -0.33333333       0.33333333      -0.33333333 </v>
   <v>      -0.16666667       0.33333333      -0.33333333 </v>
   <v>       0.00000000       0.50000000      -0.33333333 </v>
   <v>       0.16666667       0.50000000      -0.33333333 </v>
   <v>       0.33333333       0.50000000      -0.33333333 </v>
   <v>       0.50000000       0.50000000      -0.33333333 </v>
   <v>      -0.33333333       0.50000000      -0.33333333 </v>
   <v>      -0.16666667       0.50000000      -0.33333333 </v>
   <v>      -0.00000000      -0.33333333      -0.33333333 </v>
   <v>       0.16666667      -0.33333333      -0.33333333 </v>
   <v>       0.33333333      -0.33333333      -0.33333333 </v>
   <v>       0.50000000      -0.33333333      -0.33333333 </v>
   <v>      -0.33333333      -0.33333333      -0.33333333 </v>
   <v>      -0.16666667      -0.33333333      -0.33333333 </v>
   <v>       0.00000000      -0.16666667      -0.33333333 </v>
   <v>       0.16666667      -0.16666667      -0.33333333 </v>
   <v>       0.33333333      -0.16666667      -0.33333333 </v>
   <v>       0.50000000      -0.16666667      -0.33333333 </v>
   <v>      -0.33333333      -0.16666667      -0.33333333 </v>
   <v>      -0.16666667      -0.16666667      -0.33333333 </v>
   <v>       0.00000000       0.00000000      -0.16666667 </v>
   <v>       0.16666667      -0.00000000      -0.16666667 </v>
   <v>       0.33333333       0.00000000      -0.16666667 </v>
   <v>       0.50000000       0.00000000      -0.16666667 </v>
   <v>      -0.33333333      -0.00000000      -0.16666667 </v>
   <v>      -0.16666667       0.00000000      -0.16666667 </v>
   <v>      -0.00000000       0.16666667      -0.16666667 </v>
   <v>       0.16666667       0.16666667      -0.16666667 </v>
   <v>       0.33333333       0.16666667      -0.16666667 </v>
   <v>       0.50000000       0.16666667      -0.16666667 </v>
   <v>      -0.33333333       0.16666667      -0.16666667 </v>
   <v>      -0.16666667       0.16666667      -0.16666667 </v>
   <v>       0.00000000       0.33333333      -0.16666667 </v>
   <v>       0.16666667       0.33333333      -0.16666667 </v>
   <v>       0.33333333       0.33333333      -0.16666667 </v>
   <v>       0.50000000       0.33333333      -0.16666667 </v>
   <v>      -0.33333333       0.33333333      -0.16666667 </v>
   <v>      -0.16666667       0.33333333      -0.16666667 </v>
   <v>       0.00000000       0.50000000      -0.16666667 </v>
   <v>       0.16666667       0.50000000      -0.16666667 </v>
   <v>       0.33333333       0.50000000      -0.16666667 </v>
   <v>       0.50000000       0.50000000      -0.16666667 </v>
   <v>      -0.33333333       0.50000000      -0.16666667 </v>
   <v>      -0.16666667       0.50000000      -0.16666667 </v>
   <v>      -0.00000000      -0.33333333      -0.16666667 </v>
   <v>       0.16666667      -0.33333333      -0.16666667 </v>
   <v>       0.33333333      -0.33333333      -0.16666667 </v>
   <v>       0.50000000      -0.33333333      -0.16666667 </v>
   <v>      -0.33333333      -0.33333333      -0.16666667 </v>
   <v>      -0.16666667      -0.33333333      -0.16666667 </v>
   <v>       0.00000000      -0.16666667      -0.16666667 </v>
   <v>       0.16666667      -0.16666667      -0.16666667 </v>
   <v>       0.33333333      -0.16666667      -0.16666667 </v>
   <v>       0.50000000      -0.16666667      -0.16666667 </v>
   <v>      -0.33333333      -0.16666667      -0.16666667 </v>
   <v>      -0.16666667      -0.16666667      -0.16666667 </v>
  </varray>
  <varray name="weights" >
   <v>       0.00462963 </v>
   <v>       0.00462963 </v>
   <v>       0.00462963 </v>
   <v>       0.00462963 </v>
   <v>       0.00462963 </v>
   <v>       0.00462963 </v>
   <v>       0.00462963 </v>
   <v>       0.00462963 </v>
   <v>       0.00462963 </v>
   <v>       0.00462963 </v>
   <v>       0.00462963 </v>
   <v>       0.00462963 </v>
   <v>       0.00462963 </v>
   <v>       0.00462963 </v>
   <v>       0.00462963 </v>
   <v>       0.00462963 </v>
   <v>       0.00462963 </v>
   <v>       0.00462963 </v>
   <v>       0.00462963 </v>
   <v>       0.00462963 </v>
   <v>       0.00462963 </v>
   <v>       0.00462963 </v>
   <v>       0.00462963 </v>
   <v>       0.00462963 </v>
   <v>       0.00462963 </v>
   <v>       0.00462963 </v>
   <v>       0.00462963 </v>
   <v>       0.00462963 </v>
   <v>       0.00462963 </v>
   <v>       0.00462963 </v>
   <v>       0.00462963 </v>
   <v>       0.00462963 </v>
   <v>       0.00462963 </v>
   <v>       0.00462963 </v>
   <v>       0.00462963 </v>
   <v>       0.00462963 </v>
   <v>       0.00462963 </v>
   <v>       0.00462963 </v>
   <v>       0.00462963 </v>
   <v>       0.00462963 </v>
   <v>       0.00462963 </v>
   <v>       0.00462963 </v>
   <v>       0.00462963 </v>
   <v>       0.00462963 </v>
   <v>       0.00462963 </v>
   <v>       0.00462963 </v>
   <v>       0.00462963 </v>
   <v>       0.00462963 </v>
   <v>       0.00462963 </v>
   <v>       0.00462963 </v>
   <v>       0.00462963 </v>
   <v>       0.00462963 </v>
   <v>       0.00462963 </v>
   <v>       0.00462963 </v>
   <v>       0.00462963 </v>
   <v>       0.00462963 </v>
   <v>       0.00462963 </v>
   <v>       0.00462963 </v>
   <v>       0.00462963 </v>
   <v>       0.00462963 </v>
   <v>       0.00462963 </v>
   <v>       0.00462963 </v>
   <v>       0.00462963 </v>
   <v>       0.00462963 </v>
   <v>       0.00462963 </v>
   <v>       0.00462963 </v>
   <v>       0.00462963 </v>
   <v>       0.00462963 </v>
   <v>       0.00462963 </v>
   <v>       0.00462963 </v>
   <v>       0.00462963 </v>
   <v>       0.00462963 </v>
   <v>       0.00462963 </v>
   <v>       0.00462963 </v>
   <v>       0.00462963 </v>
   <v>       0.00462963 </v>
   <v>       0.00462963 </v>
   <v>       0.00462963 </v>
   <v>       0.00462963 </v>
   <v>       0.00462963 </v>
   <v>       0.00462963 </v>
   <v>       0.00462963 </v>
   <v>       0.00462963 </v>
   <v>       0.00462963 </v>
   <v>       0.00462963 </v>
   <v>       0.00462963 </v>
   <v>       0.00462963 </v>
   <v>       0.00462963 </v>
   <v>       0.00462963 </v>
   <v>       0.00462963 </v>
   <v>       0.00462963 </v>
   <v>       0.00462963 </v>
   <v>       0.00462963 </v>
   <v>       0.00462963 </v>
   <v>       0.00462963 </v>
   <v>       0.00462963 </v>
   <v>       0.00462963 </v>
   <v>       0.00462963 </v>
   <v>       0.00462963 </v>
   <v>       0.00462963 </v>
   <v>       0.00462963 </v>
   <v>       0.00462963 </v>
   <v>       0.00462963 </v>
   <v>       0.00462963 </v>
   <v>       0.00462963 </v>
   <v>       0.00462963 </v>
   <v>       0.00462963 </v>
   <v>       0.00462963 </v>
   <v>       0.00462963 </v>
   <v>       0.00462963 </v>
   <v>       0.00462963 </v>
   <v>       0.00462963 </v>
   <v>       0.00462963 </v>
   <v>       0.00462963 </v>
   <v>       0.00462963 </v>
   <v>       0.00462963 </v>
   <v>       0.00462963 </v>
   <v>       0.00462963 </v>
   <v>       0.00462963 </v>
   <v>       0.00462963 </v>
   <v>       0.00462963 </v>
   <v>       0.00462963 </v>
   <v>       0.00462963 </v>
   <v>       0.00462963 </v>
   <v>       0.00462963 </v>
   <v>       0.00462963 </v>
   <v>       0.00462963 </v>
   <v>       0.00462963 </v>
   <v>       0.00462963 </v>
   <v>       0.00462963 </v>
   <v>       0.00462963 </v>
   <v>       0.00462963 </v>
   <v>       0.00462963 </v>
   <v>       0.00462963 </v>
   <v>       0.00462963 </v>
   <v>       0.00462963 </v>
   <v>       0.00462963 </v>
   <v>       0.00462963 </v>
   <v>       0.00462963 </v>
   <v>       0.00462963 </v>
   <v>       0.00462963 </v>
   <v>       0.00462963 </v>
   <v>       0.00462963 </v>
   <v>       0.00462963 </v>
   <v>       0.00462963 </v>
   <v>       0.00462963 </v>
   <v>       0.00462963 </v>
   <v>       0.00462963 </v>
   <v>       0.00462963 </v>
   <v>       0.00462963 </v>
   <v>       0.00462963 </v>
   <v>       0.00462963 </v>
   <v>       0.00462963 </v>
   <v>       0.00462963 </v>
   <v>       0.00462963 </v>
   <v>       0.00462963 </v>
   <v>       0.00462963 </v>
   <v>       0.00462963 </v>
   <v>       0.00462963 </v>
   <v>       0.00462963 </v>
   <v>       0.00462963 </v>
   <v>       0.00462963 </v>
   <v>       0.00462963 </v>
   <v>       0.00462963 </v>
   <v>       0.00462963 </v>
   <v>       0.00462963 </v>
   <v>       0.00462963 </v>
   <v>       0.00462963 </v>
   <v>       0.00462963 </v>
   <v>       0.00462963 </v>
   <v>       0.00462963 </v>
   <v>       0.00462963 </v>
   <v>       0.00462963 </v>
   <v>       0.00462963 </v>
   <v>       0.00462963 </v>
   <v>       0.00462963 </v>
   <v>       0.00462963 </v>
   <v>       0.00462963 </v>
   <v>       0.00462963 </v>
   <v>       0.00462963 </v>
   <v>       0.00462963 </v>
   <v>       0.00462963 </v>
   <v>       0.00462963 </v>
   <v>       0.00462963 </v>
   <v>       0.00462963 </v>
   <v>       0.00462963 </v>
   <v>       0.00462963 </v>
   <v>       0.00462963 </v>
   <v>       0.00462963 </v>
   <v>       0.00462963 </v>
   <v>       0.00462963 </v>
   <v>       0.00462963 </v>
   <v>       0.00462963 </v>
   <v>       0.00462963 </v>
   <v>       0.00462963 </v>
   <v>       0.00462963 </v>
   <v>       0.00462963 </v>
   <v>       0.00462963 </v>
   <v>       0.00462963 </v>
   <v>       0.00462963 </v>
   <v>       0.00462963 </v>
   <v>       0.00462963 </v>
   <v>       0.00462963 </v>
   <v>       0.00462963 </v>
   <v>       0.00462963 </v>
   <v>       0.00462963 </v>
   <v>       0.00462963 </v>
   <v>       0.00462963 </v>
   <v>       0.00462963 </v>
   <v>       0.00462963 </v>
   <v>       0.00462963 </v>
   <v>       0.00462963 </v>
   <v>       0.00462963 </v>
   <v>       0.00462963 </v>
   <v>       0.00462963 </v>
   <v>       0.00462963 </v>
  </varray>
 </kpoints>
 <varray name="opticaltransitions" >
  <v>      4.268      0.121 </v>
  <v>      4.297 121463.278 </v>
  <v>      4.297 120750.865 </v>
  <v>      4.391  32856.290 </v>
  <v>      4.391  32802.630 </v>
  <v>      4.482      0.000 </v>
  <v>      4.496  28090.841 </v>
  <v>      4.504      0.000 </v>
  <v>      4.504      0.000 </v>
  <v>      4.520      0.010 </v>
  <v>      4.534      0.000 </v>
  <v>      4.534      0.000 </v>
  <v>      4.538  29950.727 </v>
  <v>      4.538  29850.683 </v>
  <v>      4.545      0.000 </v>
  <v>      4.618     58.965 </v>
  <v>      4.618     58.562 </v>
  <v>      4.619   1629.363 </v>
  <v>      4.654      0.000 </v>
  <v>      4.655      0.000 </v>
  <v>      4.655      0.000 </v>
  <v>      4.665      0.005 </v>
  <v>      4.686  25479.753 </v>
  <v>      4.686  25434.125 </v>
  <v>      4.702     82.923 </v>
  <v>      4.702     84.966 </v>
  <v>      4.702      0.000 </v>
  <v>      4.712    677.015 </v>
  <v>      4.712    674.122 </v>
  <v>      4.720      0.000 </v>
  <v>      4.723      0.000 </v>
  <v>      4.723      0.000 </v>
  <v>      4.733   4893.441 </v>
  <v>      4.737     60.595 </v>
  <v>      4.737     61.094 </v>
  <v>      4.750      0.000 </v>
  <v>      4.751      0.000 </v>
  <v>      4.752      0.000 </v>
  <v>      4.761      0.000 </v>
  <v>      4.775   1186.937 </v>
  <v>      4.777      0.370 </v>
  <v>      4.777      0.344 </v>
  <v>      4.777      0.000 </v>
  <v>      4.778      0.000 </v>
  <v>      4.778      0.000 </v>
  <v>      4.781      0.000 </v>
  <v>      4.781      0.000 </v>
  <v>      4.788      0.000 </v>
  <v>      4.790    748.429 </v>
  <v>      4.807   1141.972 </v>
  <v>      4.807   1121.006 </v>
  <v>      4.822      0.000 </v>
  <v>      4.825      0.000 </v>
  <v>      4.825      0.000 </v>
  <v>      4.825      0.000 </v>
  <v>      4.828    228.455 </v>
  <v>      4.828    230.335 </v>
  <v>      4.856      0.000 </v>
  <v>      4.856      0.000 </v>
  <v>      4.858      0.000 </v>
  <v>      4.862    341.005 </v>
  <v>      4.862    338.860 </v>
  <v>      4.868      0.000 </v>
  <v>      4.869      6.609 </v>
  <v>      4.870      4.490 </v>
  <v>      4.870      4.257 </v>
  <v>      4.876      0.000 </v>
  <v>      4.877      0.000 </v>
  <v>      4.877      0.000 </v>
  <v>      4.877      0.000 </v>
  <v>      4.893      0.000 </v>
  <v>      4.894      0.000 </v>
  <v>      4.896      0.000 </v>
  <v>      4.907    848.603 </v>
  <v>      4.907    848.676 </v>
  <v>      4.913   6592.924 </v>
  <v>      4.920    866.589 </v>
  <v>      4.921    847.743 </v>
  <v>      4.925    455.745 </v>
  <v>      4.925    455.730 </v>
  <v>      4.926      0.000 </v>
  <v>      4.926      0.000 </v>
  <v>      4.927      0.000 </v>
  <v>      4.927      0.000 </v>
  <v>      4.934      0.000 </v>
  <v>      4.934      0.000 </v>
  <v>      4.934      0.000 </v>
  <v>      4.936      0.000 </v>
  <v>      4.936      0.000 </v>
  <v>      4.938      0.000 </v>
  <v>      4.943   7606.337 </v>
  <v>      4.947      0.000 </v>
  <v>      4.947      0.000 </v>
  <v>      4.952      0.000 </v>
  <v>      4.953   1801.141 </v>
  <v>      4.953   1789.570 </v>
  <v>      4.962      0.000 </v>
  <v>      4.966   1642.503 </v>
  <v>      4.966   1634.487 </v>
  <v>      4.966      0.000 </v>
  <v>      4.966      0.000 </v>
  <v>      4.970   1055.203 </v>
  <v>      4.971      0.000 </v>
  <v>      4.971      0.000 </v>
  <v>      4.973      0.000 </v>
  <v>      4.976      0.000 </v>
  <v>      4.978    100.093 </v>
  <v>      4.978    100.479 </v>
  <v>      4.983      0.001 </v>
  <v>      4.985     15.859 </v>
  <v>      4.985     15.576 </v>
  <v>      4.986      0.000 </v>
  <v>      4.986      0.000 </v>
  <v>      4.990      0.000 </v>
  <v>      5.028   9075.554 </v>
  <v>      5.029   9050.008 </v>
  <v>      5.037      0.083 </v>
  <v>      5.037    279.226 </v>
  <v>      5.037    280.495 </v>
  <v>      5.038      0.000 </v>
  <v>      5.038      0.000 </v>
  <v>      5.038      0.000 </v>
  <v>      5.046      0.000 </v>
  <v>      5.051      0.000 </v>
  <v>      5.051      0.000 </v>
  <v>      5.052    205.543 </v>
  <v>      5.052    206.312 </v>
  <v>      5.055      0.000 </v>
  <v>      5.058   4076.415 </v>
  <v>      5.060      0.000 </v>
  <v>      5.063      0.000 </v>
  <v>      5.063      0.000 </v>
  <v>      5.066   1656.851 </v>
  <v>      5.070    248.735 </v>
  <v>      5.070    249.317 </v>
  <v>      5.073      0.033 </v>
  <v>      5.073     23.082 </v>
  <v>      5.073     22.991 </v>
  <v>      5.075      0.137 </v>
  <v>      5.100   3079.906 </v>
  <v>      5.100   3083.420 </v>
  <v>      5.101      0.000 </v>
  <v>      5.108  18191.527 </v>
  <v>      5.111      0.000 </v>
  <v>      5.111      0.000 </v>
  <v>      5.116      0.000 </v>
  <v>      5.116      0.000 </v>
  <v>      5.116      0.000 </v>
  <v>      5.118      0.000 </v>
  <v>      5.118      0.000 </v>
  <v>      5.124     16.597 </v>
  <v>      5.124      0.021 </v>
  <v>      5.124     16.649 </v>
  <v>      5.125      0.000 </v>
  <v>      5.125      0.000 </v>
  <v>      5.125      0.000 </v>
  <v>      5.129   6126.947 </v>
  <v>      5.131    860.342 </v>
  <v>      5.131    866.739 </v>
  <v>      5.142    191.674 </v>
  <v>      5.142    174.787 </v>
  <v>      5.142      0.000 </v>
  <v>      5.142      0.000 </v>
  <v>      5.142      0.000 </v>
  <v>      5.143      0.000 </v>
  <v>      5.144    194.893 </v>
  <v>      5.144    204.642 </v>
  <v>      5.152      0.000 </v>
  <v>      5.155     21.354 </v>
  <v>      5.155     20.893 </v>
  <v>      5.155      0.000 </v>
  <v>      5.155      0.000 </v>
  <v>      5.155      0.000 </v>
  <v>      5.155      0.000 </v>
  <v>      5.160      0.000 </v>
  <v>      5.160      0.000 </v>
  <v>      5.162   1051.714 </v>
  <v>      5.162   1035.693 </v>
  <v>      5.165      0.000 </v>
  <v>      5.167    443.246 </v>
  <v>      5.167    442.451 </v>
  <v>      5.171     75.143 </v>
  <v>      5.174      0.000 </v>
  <v>      5.178      0.000 </v>
  <v>      5.178      0.000 </v>
  <v>      5.183      0.000 </v>
  <v>      5.183      0.000 </v>
  <v>      5.187     13.101 </v>
  <v>      5.187      0.000 </v>
  <v>      5.188     37.376 </v>
  <v>      5.188     37.575 </v>
  <v>      5.188      0.424 </v>
  <v>      5.192     34.685 </v>
  <v>      5.192     34.898 </v>
  <v>      5.192      0.000 </v>
  <v>      5.192      0.646 </v>
  <v>      5.192      0.639 </v>
  <v>      5.192      0.000 </v>
  <v>      5.192      0.000 </v>
  <v>      5.192      0.000 </v>
  <v>      5.212     28.164 </v>
  <v>      5.212     26.418 </v>
  <v>      5.217      0.000 </v>
  <v>      5.235  17726.209 </v>
  <v>      5.237      0.000 </v>
  <v>      5.237      0.000 </v>
  <v>      5.237      0.000 </v>
  <v>      5.237      0.000 </v>
  <v>      5.238   1827.553 </v>
  <v>      5.238   1825.586 </v>
  <v>      5.241      0.000 </v>
  <v>      5.243      0.000 </v>
  <v>      5.243      0.000 </v>
  <v>      5.254      0.000 </v>
  <v>      5.263     35.650 </v>
  <v>      5.263     67.272 </v>
  <v>      5.263    398.186 </v>
  <v>      5.263    363.287 </v>
  <v>      5.263      0.000 </v>
  <v>      5.263      0.000 </v>
  <v>      5.263      0.000 </v>
  <v>      5.265      0.000 </v>
  <v>      5.273      0.419 </v>
  <v>      5.273      0.481 </v>
  <v>      5.273      8.431 </v>
  <v>      5.283      0.000 </v>
  <v>      5.284      0.000 </v>
  <v>      5.284      0.000 </v>
  <v>      5.287    459.764 </v>
  <v>      5.292     30.036 </v>
  <v>      5.292     30.021 </v>
  <v>      5.293      0.000 </v>
  <v>      5.293      0.000 </v>
  <v>      5.296    141.497 </v>
  <v>      5.297      0.000 </v>
  <v>      5.299      0.000 </v>
  <v>      5.299      0.000 </v>
  <v>      5.299      0.000 </v>
  <v>      5.300      0.000 </v>
  <v>      5.306     53.270 </v>
  <v>      5.306     55.485 </v>
  <v>      5.312      0.000 </v>
  <v>      5.315      0.000 </v>
  <v>      5.316      0.117 </v>
  <v>      5.316      0.080 </v>
  <v>      5.322     29.263 </v>
  <v>      5.325    903.021 </v>
  <v>      5.325   1744.194 </v>
  <v>      5.325   1733.025 </v>
  <v>      5.327     21.645 </v>
  <v>      5.327     52.808 </v>
  <v>      5.327     32.963 </v>
  <v>      5.327     50.952 </v>
  <v>      5.328      0.000 </v>
  <v>      5.328      0.000 </v>
  <v>      5.387      0.000 </v>
  <v>      5.387      0.000 </v>
  <v>      5.391      0.000 </v>
  <v>      5.397     13.088 </v>
  <v>      5.397     12.846 </v>
  <v>      5.402    652.234 </v>
  <v>      5.404    163.085 </v>
  <v>      5.404    161.027 </v>
  <v>      5.405      0.000 </v>
  <v>      5.405      0.000 </v>
  <v>      5.405      0.000 </v>
  <v>      5.405      0.000 </v>
  <v>      5.407      0.000 </v>
  <v>      5.407      0.000 </v>
  <v>      5.409      0.000 </v>
  <v>      5.413    223.087 </v>
  <v>      5.413    224.163 </v>
  <v>      5.420   5387.404 </v>
  <v>      5.451      0.000 </v>
  <v>      5.451    331.147 </v>
  <v>      5.451    329.671 </v>
  <v>      5.452      0.000 </v>
  <v>      5.452      0.000 </v>
  <v>      5.453      0.000 </v>
  <v>      5.468    233.377 </v>
  <v>      5.468    236.093 </v>
  <v>      5.470      0.000 </v>
  <v>      5.470      0.000 </v>
  <v>      5.471      0.000 </v>
  <v>      5.476    249.432 </v>
  <v>      5.482      0.000 </v>
  <v>      5.483      0.000 </v>
  <v>      5.484     31.527 </v>
  <v>      5.484     31.447 </v>
  <v>      5.485      0.000 </v>
  <v>      5.485      0.000 </v>
  <v>      5.491   1286.334 </v>
  <v>      5.491   1279.194 </v>
  <v>      5.494   3627.633 </v>
  <v>      5.496      0.000 </v>
  <v>      5.496      0.000 </v>
  <v>      5.503      0.000 </v>
  <v>      5.505   2253.485 </v>
  <v>      5.506      0.000 </v>
  <v>      5.507    799.875 </v>
  <v>      5.507    796.904 </v>
  <v>      5.512      0.000 </v>
  <v>      5.512      0.000 </v>
  <v>      5.516   1662.289 </v>
  <v>      5.523      0.000 </v>
  <v>      5.524      0.000 </v>
  <v>      5.525      0.000 </v>
  <v>      5.525      0.000 </v>
  <v>      5.527      0.000 </v>
  <v>      5.528    935.982 </v>
  <v>      5.528    936.278 </v>
  <v>      5.561    123.731 </v>
  <v>      5.561    123.239 </v>
  <v>      5.569      0.000 </v>
  <v>      5.569      0.000 </v>
  <v>      5.569      0.000 </v>
  <v>      5.573   4645.653 </v>
  <v>      5.574   4588.240 </v>
  <v>      5.578      0.000 </v>
  <v>      5.579    297.841 </v>
  <v>      5.580      0.000 </v>
  <v>      5.580    578.260 </v>
  <v>      5.580    569.840 </v>
  <v>      5.582      0.000 </v>
  <v>      5.582      0.000 </v>
  <v>      5.591   1062.836 </v>
  <v>      5.594   1307.129 </v>
  <v>      5.594   1292.589 </v>
  <v>      5.594      0.000 </v>
  <v>      5.595      0.000 </v>
  <v>      5.598      0.000 </v>
  <v>      5.598      0.000 </v>
  <v>      5.605     67.169 </v>
  <v>      5.605     58.169 </v>
  <v>      5.606      0.000 </v>
  <v>      5.607      0.000 </v>
  <v>      5.608      0.000 </v>
  <v>      5.610      0.000 </v>
  <v>      5.611      0.000 </v>
  <v>      5.611     33.524 </v>
  <v>      5.611     33.392 </v>
  <v>      5.611     20.265 </v>
  <v>      5.614      0.000 </v>
  <v>      5.614      0.000 </v>
  <v>      5.616     88.759 </v>
  <v>      5.618   2395.345 </v>
  <v>      5.618   2343.912 </v>
  <v>      5.618      0.000 </v>
  <v>      5.623      0.000 </v>
  <v>      5.623      0.000 </v>
  <v>      5.624      0.000 </v>
  <v>      5.624      0.000 </v>
  <v>      5.624      0.000 </v>
  <v>      5.625      0.000 </v>
  <v>      5.628    341.973 </v>
  <v>      5.628    342.195 </v>
  <v>      5.629      0.000 </v>
  <v>      5.629      0.000 </v>
  <v>      5.637      0.000 </v>
  <v>      5.642    344.684 </v>
  <v>      5.642    345.079 </v>
  <v>      5.645      0.000 </v>
  <v>      5.648      0.000 </v>
  <v>      5.650      0.000 </v>
  <v>      5.650      0.000 </v>
  <v>      5.652    614.536 </v>
  <v>      5.652    605.078 </v>
  <v>      5.654    171.582 </v>
  <v>      5.654    171.544 </v>
  <v>      5.654     11.063 </v>
  <v>      5.656      4.314 </v>
  <v>      5.656      4.261 </v>
  <v>      5.658      0.000 </v>
  <v>      5.660      0.000 </v>
  <v>      5.660      0.000 </v>
  <v>      5.661      0.000 </v>
  <v>      5.662     52.719 </v>
  <v>      5.662     50.783 </v>
  <v>      5.664      0.000 </v>
  <v>      5.664      0.000 </v>
  <v>      5.668      0.000 </v>
  <v>      5.670      0.000 </v>
  <v>      5.670      0.000 </v>
  <v>      5.674   1263.115 </v>
  <v>      5.674   1261.741 </v>
  <v>      5.675      0.000 </v>
  <v>      5.681      0.000 </v>
  <v>      5.681      0.000 </v>
  <v>      5.681      0.000 </v>
  <v>      5.685      0.005 </v>
  <v>      5.685     96.969 </v>
  <v>      5.685     96.022 </v>
  <v>      5.693      0.000 </v>
  <v>      5.697   1183.706 </v>
  <v>      5.697   1174.570 </v>
  <v>      5.699   3605.241 </v>
  <v>      5.703      0.000 </v>
  <v>      5.703      0.000 </v>
  <v>      5.704   2482.310 </v>
  <v>      5.704   2446.631 </v>
  <v>      5.708      0.000 </v>
  <v>      5.709      0.000 </v>
  <v>      5.710    117.907 </v>
  <v>      5.710    118.669 </v>
  <v>      5.715      0.000 </v>
  <v>      5.715      0.000 </v>
  <v>      5.720     91.342 </v>
  <v>      5.721      0.000 </v>
  <v>      5.721      0.000 </v>
  <v>      5.723      0.001 </v>
  <v>      5.725     83.998 </v>
  <v>      5.726      0.000 </v>
  <v>      5.726      0.000 </v>
  <v>      5.726    590.186 </v>
  <v>      5.726    574.247 </v>
  <v>      5.727      0.000 </v>
  <v>      5.729      0.000 </v>
  <v>      5.729      0.000 </v>
  <v>      5.736   1346.261 </v>
  <v>      5.736   1322.540 </v>
  <v>      5.751      0.046 </v>
  <v>      5.751      0.227 </v>
  <v>      5.761      0.000 </v>
  <v>      5.761      0.000 </v>
  <v>      5.774      0.000 </v>
  <v>      5.780   3389.203 </v>
  <v>      5.780   3347.869 </v>
  <v>      5.781      0.000 </v>
  <v>      5.786      0.038 </v>
  <v>      5.786      0.006 </v>
  <v>      5.786      0.000 </v>
  <v>      5.786      0.000 </v>
  <v>      5.789      0.000 </v>
  <v>      5.789      0.000 </v>
  <v>      5.794      0.001 </v>
  <v>      5.800   3679.601 </v>
  <v>      5.800   3646.906 </v>
  <v>      5.801      0.000 </v>
  <v>      5.809      0.000 </v>
  <v>      5.814    288.568 </v>
  <v>      5.829      0.000 </v>
  <v>      5.831   1066.163 </v>
  <v>      5.834      0.000 </v>
  <v>      5.834      0.000 </v>
  <v>      5.834      0.000 </v>
  <v>      5.834      5.951 </v>
  <v>      5.834      6.558 </v>
  <v>      5.837     46.000 </v>
  <v>      5.838      0.000 </v>
  <v>      5.839      0.000 </v>
  <v>      5.840      0.000 </v>
  <v>      5.842      0.000 </v>
  <v>      5.843     30.894 </v>
  <v>      5.843     30.314 </v>
  <v>      5.848      0.000 </v>
  <v>      5.853      0.000 </v>
  <v>      5.853    323.658 </v>
  <v>      5.854    314.700 </v>
  <v>      5.854      0.000 </v>
  <v>      5.855      0.000 </v>
  <v>      5.855      0.000 </v>
  <v>      5.856      0.000 </v>
  <v>      5.858     30.680 </v>
  <v>      5.860      0.000 </v>
  <v>      5.860    164.276 </v>
  <v>      5.860    163.689 </v>
  <v>      5.860      0.001 </v>
  <v>      5.862      0.000 </v>
  <v>      5.863      0.000 </v>
  <v>      5.863      0.000 </v>
  <v>      5.865    108.922 </v>
  <v>      5.865    112.780 </v>
  <v>      5.868      0.000 </v>
  <v>      5.869      0.000 </v>
  <v>      5.871    210.923 </v>
  <v>      5.881    318.544 </v>
  <v>      5.881    299.843 </v>
  <v>      5.884      0.000 </v>
  <v>      5.892      0.000 </v>
  <v>      5.894      0.000 </v>
  <v>      5.894      0.000 </v>
  <v>      5.895      0.051 </v>
  <v>      5.895     27.309 </v>
  <v>      5.895     26.527 </v>
  <v>      5.896      0.000 </v>
  <v>      5.897      0.000 </v>
  <v>      5.897      0.000 </v>
  <v>      5.903      0.000 </v>
  <v>      5.903      0.000 </v>
  <v>      5.903     34.409 </v>
  <v>      5.903     34.102 </v>
  <v>      5.904      0.001 </v>
  <v>      5.906      0.000 </v>
  <v>      5.912      0.000 </v>
  <v>      5.919      0.000 </v>
  <v>      5.921      0.000 </v>
  <v>      5.926      0.000 </v>
  <v>      5.926      0.000 </v>
  <v>      5.927    103.049 </v>
  <v>      5.929      0.000 </v>
  <v>      5.930      0.000 </v>
  <v>      5.931      0.000 </v>
  <v>      5.932    154.967 </v>
  <v>      5.932    138.955 </v>
  <v>      5.935      0.002 </v>
  <v>      5.938      0.000 </v>
  <v>      5.940   1611.919 </v>
  <v>      5.940   1561.474 </v>
  <v>      5.952      0.000 </v>
  <v>      5.952      0.000 </v>
  <v>      5.957      0.000 </v>
  <v>      5.960     76.076 </v>
  <v>      5.960    378.755 </v>
  <v>      5.960    378.068 </v>
  <v>      5.960      0.000 </v>
  <v>      5.960      0.000 </v>
  <v>      5.961      0.000 </v>
  <v>      5.961     61.455 </v>
  <v>      5.961     88.224 </v>
  <v>      5.962    237.911 </v>
  <v>      5.962    208.009 </v>
  <v>      5.964      0.000 </v>
  <v>      5.966      0.000 </v>
  <v>      5.966      0.000 </v>
  <v>      5.966     18.799 </v>
  <v>      5.966     28.803 </v>
  <v>      5.966     30.239 </v>
  <v>      5.968    117.800 </v>
  <v>      5.969      0.000 </v>
  <v>      5.969      0.000 </v>
  <v>      5.972      0.000 </v>
  <v>      5.974     79.985 </v>
  <v>      5.981      0.000 </v>
  <v>      5.982    230.917 </v>
  <v>      5.982      0.874 </v>
  <v>      5.983      1.668 </v>
  <v>      5.983      0.000 </v>
  <v>      5.983      0.000 </v>
  <v>      5.985      0.011 </v>
  <v>      5.985   4165.252 </v>
  <v>      5.988     60.828 </v>
  <v>      5.988     55.454 </v>
  <v>      5.988      0.000 </v>
  <v>      5.988      0.000 </v>
  <v>      5.992    453.399 </v>
  <v>      5.992    444.228 </v>
  <v>      5.993      0.000 </v>
  <v>      5.993      0.000 </v>
  <v>      5.993      0.000 </v>
  <v>      5.994    198.411 </v>
  <v>      5.994    198.541 </v>
  <v>      5.994      1.505 </v>
  <v>      5.996      0.000 </v>
  <v>      5.997      0.000 </v>
  <v>      6.001      0.000 </v>
  <v>      6.001      0.000 </v>
  <v>      6.002   4896.060 </v>
  <v>      6.002   4703.356 </v>
  <v>      6.005      0.000 </v>
  <v>      6.010   4690.864 </v>
  <v>      6.010   4736.805 </v>
  <v>      6.018      0.000 </v>
  <v>      6.018      0.000 </v>
  <v>      6.018      0.000 </v>
  <v>      6.018      0.000 </v>
  <v>      6.018      0.000 </v>
  <v>      6.018      0.000 </v>
  <v>      6.019      4.040 </v>
  <v>      6.019      4.447 </v>
  <v>      6.020      0.001 </v>
  <v>      6.023      0.000 </v>
  <v>      6.025    811.545 </v>
  <v>      6.025    811.248 </v>
  <v>      6.027      0.000 </v>
  <v>      6.027      0.000 </v>
  <v>      6.027      0.000 </v>
  <v>      6.029    421.715 </v>
  <v>      6.029      0.000 </v>
  <v>      6.029      0.000 </v>
  <v>      6.031   2735.707 </v>
  <v>      6.031   2694.592 </v>
  <v>      6.031    706.176 </v>
  <v>      6.031    746.501 </v>
  <v>      6.031    545.131 </v>
  <v>      6.033      0.000 </v>
  <v>      6.033      0.000 </v>
  <v>      6.034      0.000 </v>
  <v>      6.034      0.000 </v>
  <v>      6.035      0.000 </v>
  <v>      6.035      0.000 </v>
  <v>      6.036    617.005 </v>
  <v>      6.036    619.853 </v>
  <v>      6.037      0.000 </v>
  <v>      6.037      0.000 </v>
  <v>      6.038     17.307 </v>
  <v>      6.038     17.214 </v>
  <v>      6.038      0.000 </v>
  <v>      6.038      0.000 </v>
  <v>      6.038      0.000 </v>
  <v>      6.038      0.000 </v>
  <v>      6.038      0.000 </v>
  <v>      6.040      0.000 </v>
  <v>      6.040      0.000 </v>
  <v>      6.040    198.806 </v>
  <v>      6.041      0.806 </v>
  <v>      6.041      0.841 </v>
  <v>      6.041      0.000 </v>
  <v>      6.046    552.470 </v>
  <v>      6.046    553.857 </v>
  <v>      6.047      0.000 </v>
  <v>      6.047      0.000 </v>
  <v>      6.052      0.000 </v>
  <v>      6.057    772.414 </v>
  <v>      6.069      0.000 </v>
  <v>      6.069      0.000 </v>
  <v>      6.070     36.193 </v>
  <v>      6.070     36.280 </v>
  <v>      6.070      0.000 </v>
  <v>      6.070      0.000 </v>
  <v>      6.082    213.011 </v>
  <v>      6.082    213.937 </v>
  <v>      6.083      0.000 </v>
  <v>      6.083      0.000 </v>
  <v>      6.084     70.051 </v>
  <v>      6.084    494.556 </v>
  <v>      6.084    494.544 </v>
  <v>      6.084      0.000 </v>
  <v>      6.086      0.000 </v>
  <v>      6.086      0.000 </v>
  <v>      6.088      0.000 </v>
  <v>      6.089   1184.671 </v>
  <v>      6.089   1178.546 </v>
  <v>      6.093      0.000 </v>
  <v>      6.094      0.000 </v>
  <v>      6.097     13.963 </v>
  <v>      6.097      0.000 </v>
  <v>      6.097      0.000 </v>
  <v>      6.098      0.000 </v>
  <v>      6.099    856.252 </v>
  <v>      6.099    843.003 </v>
  <v>      6.101    527.765 </v>
  <v>      6.101    522.158 </v>
  <v>      6.101      0.000 </v>
  <v>      6.102      0.000 </v>
  <v>      6.103      0.000 </v>
  <v>      6.103      0.000 </v>
  <v>      6.103      0.000 </v>
  <v>      6.104    131.072 </v>
  <v>      6.105    637.650 </v>
  <v>      6.105    639.449 </v>
  <v>      6.105      0.000 </v>
  <v>      6.105      0.000 </v>
  <v>      6.106      0.000 </v>
  <v>      6.109      0.068 </v>
  <v>      6.110    208.714 </v>
  <v>      6.111    145.719 </v>
  <v>      6.111    144.159 </v>
  <v>      6.112      0.000 </v>
  <v>      6.112      0.000 </v>
  <v>      6.114      0.000 </v>
  <v>      6.114   1107.429 </v>
  <v>      6.115     23.008 </v>
  <v>      6.115     22.665 </v>
  <v>      6.116      0.000 </v>
  <v>      6.117      0.000 </v>
  <v>      6.120      0.000 </v>
  <v>      6.121    249.282 </v>
  <v>      6.126      0.000 </v>
  <v>      6.126      0.000 </v>
  <v>      6.127      0.000 </v>
  <v>      6.132      0.807 </v>
  <v>      6.132      0.798 </v>
  <v>      6.133      0.000 </v>
  <v>      6.134     10.486 </v>
  <v>      6.134     10.503 </v>
  <v>      6.134      0.000 </v>
  <v>      6.134      0.000 </v>
  <v>      6.134      0.000 </v>
  <v>      6.136      0.000 </v>
  <v>      6.150    279.454 </v>
  <v>      6.150      0.003 </v>
  <v>      6.150      0.000 </v>
  <v>      6.150    253.734 </v>
  <v>      6.150      0.000 </v>
  <v>      6.154   2658.569 </v>
  <v>      6.154   2658.236 </v>
  <v>      6.159      0.003 </v>
  <v>      6.160      0.000 </v>
  <v>      6.160      0.000 </v>
  <v>      6.160      0.000 </v>
  <v>      6.162      0.000 </v>
  <v>      6.162      0.000 </v>
  <v>      6.162      0.139 </v>
  <v>      6.162      2.568 </v>
  <v>      6.162      2.408 </v>
  <v>      6.162      0.000 </v>
  <v>      6.168   2085.626 </v>
  <v>      6.172      0.000 </v>
  <v>      6.172      0.079 </v>
  <v>      6.173      0.000 </v>
  <v>      6.176      0.000 </v>
  <v>      6.176      0.000 </v>
  <v>      6.176    162.933 </v>
  <v>      6.176    153.156 </v>
  <v>      6.176      0.000 </v>
  <v>      6.179      0.045 </v>
  <v>      6.181      0.000 </v>
  <v>      6.181     41.899 </v>
  <v>      6.181     43.242 </v>
  <v>      6.182   2112.617 </v>
  <v>      6.182      8.588 </v>
  <v>      6.182      6.607 </v>
  <v>      6.187      0.000 </v>
  <v>      6.187      0.000 </v>
  <v>      6.188      0.000 </v>
  <v>      6.188      0.000 </v>
  <v>      6.188      0.000 </v>
  <v>      6.189      0.001 </v>
  <v>      6.191     71.405 </v>
  <v>      6.191     72.234 </v>
  <v>      6.192   4889.422 </v>
  <v>      6.194      0.000 </v>
  <v>      6.203      0.000 </v>
  <v>      6.205      0.000 </v>
  <v>      6.205      2.762 </v>
  <v>      6.205      2.746 </v>
  <v>      6.205      0.000 </v>
  <v>      6.205      0.000 </v>
  <v>      6.205      3.451 </v>
  <v>      6.207     27.215 </v>
  <v>      6.207     24.965 </v>
  <v>      6.210      0.000 </v>
  <v>      6.210      0.000 </v>
  <v>      6.216    249.316 </v>
  <v>      6.217      0.000 </v>
  <v>      6.223      0.000 </v>
  <v>      6.224      0.000 </v>
  <v>      6.225      0.000 </v>
  <v>      6.227      0.000 </v>
  <v>      6.228     25.565 </v>
  <v>      6.228     24.088 </v>
  <v>      6.228    357.250 </v>
  <v>      6.229      0.000 </v>
  <v>      6.230      0.000 </v>
  <v>      6.233      0.001 </v>
  <v>      6.234    155.093 </v>
  <v>      6.235    137.420 </v>
  <v>      6.236      6.766 </v>
  <v>      6.236      6.947 </v>
  <v>      6.236      0.000 </v>
  <v>      6.236      0.000 </v>
  <v>      6.236      0.000 </v>
  <v>      6.240      0.000 </v>
  <v>      6.248     13.482 </v>
  <v>      6.248    198.156 </v>
  <v>      6.248    192.075 </v>
  <v>      6.248      0.000 </v>
  <v>      6.248      0.000 </v>
  <v>      6.248      0.000 </v>
  <v>      6.257      0.000 </v>
  <v>      6.257      0.527 </v>
  <v>      6.257      0.527 </v>
  <v>      6.257      0.000 </v>
  <v>      6.257      0.000 </v>
  <v>      6.257      3.452 </v>
  <v>      6.269      0.000 </v>
  <v>      6.271      3.217 </v>
  <v>      6.271      2.723 </v>
  <v>      6.272      0.000 </v>
  <v>      6.272      0.000 </v>
  <v>      6.274      1.036 </v>
  <v>      6.274      1.015 </v>
  <v>      6.274      0.000 </v>
  <v>      6.274      0.000 </v>
  <v>      6.274    153.297 </v>
  <v>      6.274      0.000 </v>
  <v>      6.275      0.000 </v>
  <v>      6.281      0.000 </v>
  <v>      6.281      0.000 </v>
  <v>      6.281     69.480 </v>
  <v>      6.281     70.260 </v>
  <v>      6.281      0.000 </v>
  <v>      6.282      0.000 </v>
  <v>      6.282      8.647 </v>
  <v>      6.282      8.190 </v>
  <v>      6.282      0.000 </v>
  <v>      6.282      0.000 </v>
  <v>      6.284      1.076 </v>
  <v>      6.284      0.000 </v>
  <v>      6.310      0.000 </v>
  <v>      6.310      0.000 </v>
  <v>      6.311      0.001 </v>
  <v>      6.314    641.459 </v>
  <v>      6.314    641.915 </v>
  <v>      6.315      0.000 </v>
  <v>      6.318      0.000 </v>
  <v>      6.318     83.718 </v>
  <v>      6.318     82.911 </v>
  <v>      6.318      0.000 </v>
  <v>      6.318      3.255 </v>
  <v>      6.318      0.000 </v>
  <v>      6.320      0.000 </v>
  <v>      6.320      0.000 </v>
  <v>      6.321      3.481 </v>
  <v>      6.321      0.000 </v>
  <v>      6.321    105.185 </v>
  <v>      6.321     95.383 </v>
  <v>      6.336      0.000 </v>
  <v>      6.343      0.000 </v>
  <v>      6.347      0.000 </v>
  <v>      6.349      0.000 </v>
  <v>      6.350   3022.624 </v>
  <v>      6.350   2987.531 </v>
  <v>      6.351      0.002 </v>
  <v>      6.357      0.000 </v>
  <v>      6.360    149.938 </v>
  <v>      6.361      0.000 </v>
  <v>      6.362    475.747 </v>
  <v>      6.362    493.008 </v>
  <v>      6.363      0.001 </v>
  <v>      6.366      0.000 </v>
  <v>      6.366     31.761 </v>
  <v>      6.366     31.218 </v>
  <v>      6.366      0.000 </v>
  <v>      6.366      0.000 </v>
  <v>      6.378      0.000 </v>
  <v>      6.378      0.000 </v>
  <v>      6.381      0.000 </v>
  <v>      6.382      0.000 </v>
  <v>      6.382     68.792 </v>
  <v>      6.382     75.963 </v>
  <v>      6.383      0.000 </v>
  <v>      6.385      0.000 </v>
  <v>      6.389      0.000 </v>
  <v>      6.389      0.000 </v>
  <v>      6.390      0.000 </v>
  <v>      6.390      0.000 </v>
  <v>      6.394   1928.403 </v>
  <v>      6.394   1827.979 </v>
  <v>      6.394  12103.892 </v>
  <v>      6.395      0.000 </v>
  <v>      6.396      0.000 </v>
  <v>      6.398     98.555 </v>
  <v>      6.398    113.698 </v>
  <v>      6.399      0.000 </v>
  <v>      6.400      0.000 </v>
  <v>      6.400      0.000 </v>
  <v>      6.401      0.000 </v>
  <v>      6.401    693.741 </v>
  <v>      6.402   1710.985 </v>
  <v>      6.402   1539.031 </v>
  <v>      6.402      0.000 </v>
  <v>      6.402      0.000 </v>
  <v>      6.402      0.000 </v>
  <v>      6.406      2.873 </v>
  <v>      6.409      0.000 </v>
  <v>      6.410  11582.399 </v>
  <v>      6.410  10405.595 </v>
  <v>      6.411      0.000 </v>
  <v>      6.413   6154.488 </v>
  <v>      6.413   6523.141 </v>
  <v>      6.414      0.000 </v>
  <v>      6.420      0.000 </v>
  <v>      6.421      0.000 </v>
  <v>      6.421   3245.736 </v>
  <v>      6.421   3194.190 </v>
  <v>      6.422      0.000 </v>
  <v>      6.423      0.000 </v>
  <v>      6.424      0.000 </v>
  <v>      6.427  11170.886 </v>
  <v>      6.427  11601.753 </v>
  <v>      6.427     17.010 </v>
  <v>      6.427      0.000 </v>
  <v>      6.428      0.000 </v>
  <v>      6.429      0.000 </v>
  <v>      6.433      0.000 </v>
  <v>      6.436      0.000 </v>
  <v>      6.437      0.000 </v>
  <v>      6.437      0.000 </v>
  <v>      6.437      0.901 </v>
  <v>      6.437      0.751 </v>
  <v>      6.437      0.000 </v>
  <v>      6.439      0.000 </v>
  <v>      6.448   3238.274 </v>
  <v>      6.448   3304.506 </v>
  <v>      6.448      0.000 </v>
  <v>      6.449      0.000 </v>
  <v>      6.450      0.000 </v>
  <v>      6.451  22199.825 </v>
  <v>      6.455      0.000 </v>
  <v>      6.459      0.000 </v>
  <v>      6.472      0.000 </v>
  <v>      6.481      0.000 </v>
  <v>      6.481      0.000 </v>
  <v>      6.483   2323.686 </v>
  <v>      6.483   2323.719 </v>
  <v>      6.484      0.000 </v>
  <v>      6.485      0.000 </v>
  <v>      6.489      0.000 </v>
  <v>      6.490      0.000 </v>
  <v>      6.492      0.000 </v>
  <v>      6.493      0.000 </v>
  <v>      6.494    175.353 </v>
  <v>      6.494    178.550 </v>
  <v>      6.494      0.003 </v>
  <v>      6.494      0.000 </v>
  <v>      6.496   1202.268 </v>
  <v>      6.496   1195.487 </v>
  <v>      6.498   4287.612 </v>
  <v>      6.498   1876.577 </v>
  <v>      6.498   1863.848 </v>
  <v>      6.499      0.000 </v>
  <v>      6.500      0.000 </v>
  <v>      6.500      0.000 </v>
  <v>      6.500      0.000 </v>
  <v>      6.501      0.000 </v>
  <v>      6.502      0.000 </v>
  <v>      6.505      0.000 </v>
  <v>      6.506    662.398 </v>
  <v>      6.511    410.763 </v>
  <v>      6.511    450.711 </v>
  <v>      6.512      0.000 </v>
  <v>      6.513  14988.838 </v>
  <v>      6.513  14947.266 </v>
  <v>      6.513      0.000 </v>
  <v>      6.516      0.000 </v>
  <v>      6.523    596.612 </v>
  <v>      6.534      0.000 </v>
  <v>      6.534      0.001 </v>
  <v>      6.535      0.000 </v>
  <v>      6.535      0.003 </v>
  <v>      6.535      0.006 </v>
  <v>      6.536      0.000 </v>
  <v>      6.536      0.000 </v>
  <v>      6.539      0.000 </v>
  <v>      6.540      0.000 </v>
  <v>      6.540      0.000 </v>
  <v>      6.541    280.376 </v>
  <v>      6.541    280.298 </v>
  <v>      6.549      0.000 </v>
  <v>      6.551    105.926 </v>
  <v>      6.552   1120.053 </v>
  <v>      6.552   1123.802 </v>
  <v>      6.553      0.000 </v>
  <v>      6.554      0.000 </v>
  <v>      6.555    989.260 </v>
  <v>      6.555    981.731 </v>
  <v>      6.556      0.000 </v>
  <v>      6.557      0.000 </v>
  <v>      6.557      0.000 </v>
  <v>      6.564      0.000 </v>
  <v>      6.564     16.642 </v>
  <v>      6.564     16.373 </v>
  <v>      6.565    362.542 </v>
  <v>      6.565      0.000 </v>
  <v>      6.565      0.000 </v>
  <v>      6.566      0.000 </v>
  <v>      6.566      0.000 </v>
  <v>      6.566      0.000 </v>
  <v>      6.566      0.000 </v>
  <v>      6.567      0.000 </v>
  <v>      6.567      0.000 </v>
  <v>      6.570    489.341 </v>
  <v>      6.570    482.258 </v>
  <v>      6.573      0.000 </v>
  <v>      6.574      0.001 </v>
  <v>      6.575      0.000 </v>
  <v>      6.576    249.449 </v>
  <v>      6.578    552.994 </v>
  <v>      6.578    546.903 </v>
  <v>      6.578      0.000 </v>
  <v>      6.579      0.000 </v>
  <v>      6.582      0.000 </v>
  <v>      6.585      0.000 </v>
  <v>      6.585   1738.363 </v>
  <v>      6.585   1726.783 </v>
  <v>      6.589      0.000 </v>
  <v>      6.592      0.000 </v>
  <v>      6.593      0.000 </v>
  <v>      6.593      0.000 </v>
  <v>      6.594      0.000 </v>
  <v>      6.595      7.754 </v>
  <v>      6.595      8.091 </v>
  <v>      6.595     19.346 </v>
  <v>      6.595     19.210 </v>
  <v>      6.596     41.833 </v>
  <v>      6.597      0.000 </v>
  <v>      6.597      0.000 </v>
  <v>      6.599      0.000 </v>
  <v>      6.601      0.000 </v>
  <v>      6.602      0.000 </v>
  <v>      6.602      0.818 </v>
  <v>      6.602      0.086 </v>
  <v>      6.610      0.000 </v>
  <v>      6.611      0.001 </v>
  <v>      6.614   2570.923 </v>
  <v>      6.614   2539.905 </v>
  <v>      6.615      0.000 </v>
  <v>      6.616    833.480 </v>
  <v>      6.620     58.126 </v>
  <v>      6.620     51.981 </v>
  <v>      6.620      0.000 </v>
  <v>      6.620      0.000 </v>
  <v>      6.621      0.000 </v>
  <v>      6.622      0.000 </v>
  <v>      6.625      0.000 </v>
  <v>      6.631     44.974 </v>
  <v>      6.631     48.977 </v>
  <v>      6.631      0.000 </v>
  <v>      6.632      0.000 </v>
  <v>      6.634      0.000 </v>
  <v>      6.636      0.000 </v>
  <v>      6.638     65.575 </v>
  <v>      6.638     59.456 </v>
  <v>      6.639      0.000 </v>
  <v>      6.639      0.000 </v>
  <v>      6.640      0.000 </v>
  <v>      6.640      0.000 </v>
  <v>      6.642    181.996 </v>
  <v>      6.643      0.000 </v>
  <v>      6.643      0.000 </v>
  <v>      6.645    929.308 </v>
  <v>      6.645    885.397 </v>
  <v>      6.653      0.000 </v>
  <v>      6.656      0.000 </v>
  <v>      6.657      0.000 </v>
  <v>      6.659      0.000 </v>
  <v>      6.661      0.000 </v>
  <v>      6.662   4636.047 </v>
  <v>      6.663   4461.338 </v>
  <v>      6.667    442.188 </v>
  <v>      6.673      5.149 </v>
  <v>      6.673      4.078 </v>
  <v>      6.677      0.074 </v>
  <v>      6.680      0.000 </v>
  <v>      6.682      0.000 </v>
  <v>      6.682      0.000 </v>
  <v>      6.683   1029.008 </v>
  <v>      6.684   1003.409 </v>
  <v>      6.686      0.000 </v>
  <v>      6.687    579.680 </v>
  <v>      6.688      0.000 </v>
  <v>      6.688      0.000 </v>
  <v>      6.693      0.000 </v>
  <v>      6.693      0.000 </v>
  <v>      6.694    780.950 </v>
  <v>      6.694    782.843 </v>
  <v>      6.699      0.000 </v>
  <v>      6.700    126.173 </v>
  <v>      6.712      0.000 </v>
  <v>      6.713      0.000 </v>
  <v>      6.714    770.114 </v>
  <v>      6.714    628.732 </v>
  <v>      6.714      0.000 </v>
  <v>      6.716     17.029 </v>
  <v>      6.716     57.545 </v>
  <v>      6.717    747.527 </v>
  <v>      6.717      0.000 </v>
  <v>      6.718      0.000 </v>
  <v>      6.719    641.059 </v>
  <v>      6.719      0.000 </v>
  <v>      6.719      0.000 </v>
  <v>      6.719    861.991 </v>
  <v>      6.720      0.000 </v>
  <v>      6.722     34.377 </v>
  <v>      6.724     24.572 </v>
  <v>      6.727     38.423 </v>
  <v>      6.731      0.000 </v>
  <v>      6.734   3486.460 </v>
  <v>      6.734   3436.069 </v>
  <v>      6.735   2401.270 </v>
  <v>      6.735      0.000 </v>
  <v>      6.736      0.000 </v>
  <v>      6.736      0.000 </v>
  <v>      6.737      0.000 </v>
  <v>      6.739      0.000 </v>
  <v>      6.740      0.000 </v>
  <v>      6.743      0.000 </v>
  <v>      6.744      1.251 </v>
  <v>      6.744      1.409 </v>
  <v>      6.745      0.000 </v>
  <v>      6.748     32.231 </v>
  <v>      6.748     34.935 </v>
  <v>      6.749      0.011 </v>
  <v>      6.749      0.000 </v>
  <v>      6.750      0.000 </v>
  <v>      6.751      0.000 </v>
  <v>      6.754      0.000 </v>
  <v>      6.755  11470.005 </v>
  <v>      6.755  10826.157 </v>
  <v>      6.755     32.607 </v>
  <v>      6.755   2670.826 </v>
  <v>      6.757      0.000 </v>
  <v>      6.759   6246.296 </v>
  <v>      6.759   5407.975 </v>
  <v>      6.760      0.000 </v>
  <v>      6.763      0.000 </v>
  <v>      6.764   3397.966 </v>
  <v>      6.764    281.536 </v>
  <v>      6.764    302.257 </v>
  <v>      6.770      0.000 </v>
  <v>      6.772      0.000 </v>
  <v>      6.772      0.000 </v>
  <v>      6.776   2553.127 </v>
  <v>      6.777   2563.281 </v>
  <v>      6.778      0.000 </v>
  <v>      6.779   5309.006 </v>
  <v>      6.781      0.000 </v>
  <v>      6.783      0.000 </v>
  <v>      6.783      0.000 </v>
  <v>      6.784      0.000 </v>
  <v>      6.785      0.000 </v>
  <v>      6.785    373.473 </v>
  <v>      6.785    382.591 </v>
  <v>      6.786   2386.027 </v>
  <v>      6.786   2416.756 </v>
  <v>      6.786      0.060 </v>
  <v>      6.786      0.000 </v>
  <v>      6.786      0.000 </v>
  <v>      6.786      0.000 </v>
  <v>      6.787    159.002 </v>
  <v>      6.787    163.945 </v>
  <v>      6.788      0.000 </v>
  <v>      6.789      0.000 </v>
  <v>      6.789      0.000 </v>
  <v>      6.790      0.000 </v>
  <v>      6.791      0.000 </v>
  <v>      6.793      0.000 </v>
  <v>      6.793      0.000 </v>
  <v>      6.794    543.904 </v>
  <v>      6.794    542.286 </v>
  <v>      6.796     14.996 </v>
  <v>      6.796     14.558 </v>
  <v>      6.796      0.000 </v>
  <v>      6.796      0.000 </v>
  <v>      6.796      0.000 </v>
  <v>      6.797      0.000 </v>
  <v>      6.797      0.000 </v>
  <v>      6.798   3522.075 </v>
  <v>      6.798      0.000 </v>
  <v>      6.799      0.000 </v>
  <v>      6.800      0.000 </v>
  <v>      6.800      0.000 </v>
  <v>      6.802      0.000 </v>
  <v>      6.803   1938.571 </v>
  <v>      6.803   1915.814 </v>
  <v>      6.805      0.000 </v>
  <v>      6.805      0.000 </v>
  <v>      6.806    145.081 </v>
  <v>      6.806     49.274 </v>
  <v>      6.806     48.769 </v>
  <v>      6.806    197.911 </v>
  <v>      6.806    199.742 </v>
  <v>      6.808      0.000 </v>
  <v>      6.808      0.000 </v>
  <v>      6.809      0.000 </v>
  <v>      6.815      0.000 </v>
  <v>      6.816   2849.728 </v>
  <v>      6.816   2896.566 </v>
  <v>      6.832      0.000 </v>
  <v>      6.832      0.000 </v>
  <v>      6.841    239.875 </v>
  <v>      6.855      0.000 </v>
  <v>      6.855      0.000 </v>
  <v>      6.856      0.000 </v>
  <v>      6.856   3934.090 </v>
  <v>      6.856   3923.861 </v>
  <v>      6.857      0.000 </v>
  <v>      6.858    283.452 </v>
  <v>      6.858    281.878 </v>
  <v>      6.858      0.000 </v>
  <v>      6.859   2285.085 </v>
  <v>      6.859      0.000 </v>
  <v>      6.860   3663.114 </v>
  <v>      6.860   1279.543 </v>
  <v>      6.860   1284.139 </v>
  <v>      6.860      0.000 </v>
  <v>      6.862      0.000 </v>
  <v>      6.862      5.792 </v>
  <v>      6.862      4.870 </v>
  <v>      6.863      0.000 </v>
[...]
     <r>    15.6356    -0.0466     0.1449     0.1437     0.0001    -0.0004     0.0337 </r>
     <r>    15.6557    -0.0423     0.1479     0.1468     0.0001    -0.0004     0.0335 </r>
     <r>    15.6757    -0.0380     0.1510     0.1498     0.0001    -0.0004     0.0333 </r>
     <r>    15.6957    -0.0337     0.1540     0.1529     0.0001    -0.0004     0.0331 </r>
     <r>    15.7157    -0.0294     0.1570     0.1559     0.0001    -0.0004     0.0328 </r>
     <r>    15.7357    -0.0252     0.1600     0.1589     0.0001    -0.0004     0.0326 </r>
     <r>    15.7558    -0.0210     0.1629     0.1619     0.0001    -0.0004     0.0324 </r>
     <r>    15.7758    -0.0168     0.1659     0.1648     0.0001    -0.0003     0.0322 </r>
     <r>    15.7958    -0.0127     0.1688     0.1678     0.0001    -0.0003     0.0320 </r>
     <r>    15.8158    -0.0086     0.1717     0.1707     0.0001    -0.0003     0.0318 </r>
     <r>    15.8358    -0.0045     0.1746     0.1736     0.0001    -0.0003     0.0316 </r>
     <r>    15.8559    -0.0005     0.1775     0.1765     0.0001    -0.0003     0.0314 </r>
     <r>    15.8759     0.0035     0.1803     0.1794     0.0001    -0.0003     0.0312 </r>
     <r>    15.8959     0.0075     0.1832     0.1822     0.0001    -0.0003     0.0310 </r>
     <r>    15.9159     0.0114     0.1860     0.1851     0.0001    -0.0003     0.0308 </r>
     <r>    15.9359     0.0154     0.1888     0.1879     0.0001    -0.0003     0.0306 </r>
     <r>    15.9560     0.0192     0.1916     0.1907     0.0001    -0.0003     0.0304 </r>
     <r>    15.9760     0.0231     0.1944     0.1935     0.0001    -0.0003     0.0302 </r>
     <r>    15.9960     0.0270     0.1971     0.1962     0.0001    -0.0003     0.0300 </r>
     <r>    16.0160     0.0308     0.1998     0.1990     0.0001    -0.0003     0.0298 </r>
     <r>    16.0360     0.0345     0.2026     0.2017     0.0001    -0.0003     0.0296 </r>
     <r>    16.0561     0.0383     0.2053     0.2045     0.0001    -0.0003     0.0295 </r>
     <r>    16.0761     0.0420     0.2080     0.2072     0.0001    -0.0003     0.0293 </r>
     <r>    16.0961     0.0457     0.2106     0.2099     0.0001    -0.0003     0.0291 </r>
     <r>    16.1161     0.0494     0.2133     0.2125     0.0001    -0.0003     0.0289 </r>
     <r>    16.1361     0.0531     0.2159     0.2152     0.0001    -0.0003     0.0287 </r>
     <r>    16.1562     0.0567     0.2186     0.2178     0.0000    -0.0002     0.0286 </r>
     <r>    16.1762     0.0603     0.2212     0.2205     0.0000    -0.0002     0.0284 </r>
     <r>    16.1962     0.0639     0.2238     0.2231     0.0000    -0.0002     0.0282 </r>
     <r>    16.2162     0.0674     0.2264     0.2257     0.0000    -0.0002     0.0280 </r>
     <r>    16.2362     0.0710     0.2289     0.2282     0.0000    -0.0002     0.0279 </r>
     <r>    16.2563     0.0745     0.2315     0.2308     0.0000    -0.0002     0.0277 </r>
     <r>    16.2763     0.0780     0.2340     0.2334     0.0000    -0.0002     0.0275 </r>
     <r>    16.2963     0.0814     0.2365     0.2359     0.0000    -0.0002     0.0274 </r>
     <r>    16.3163     0.0848     0.2391     0.2384     0.0000    -0.0002     0.0272 </r>
     <r>    16.3363     0.0883     0.2416     0.2409     0.0000    -0.0002     0.0271 </r>
     <r>    16.3564     0.0917     0.2440     0.2434     0.0000    -0.0002     0.0269 </r>
     <r>    16.3764     0.0950     0.2465     0.2459     0.0000    -0.0002     0.0267 </r>
     <r>    16.3964     0.0984     0.2490     0.2484     0.0000    -0.0002     0.0266 </r>
     <r>    16.4164     0.1017     0.2514     0.2508     0.0000    -0.0002     0.0264 </r>
     <r>    16.4364     0.1050     0.2538     0.2533     0.0000    -0.0002     0.0263 </r>
     <r>    16.4565     0.1083     0.2562     0.2557     0.0000    -0.0002     0.0261 </r>
     <r>    16.4765     0.1115     0.2586     0.2581     0.0000    -0.0002     0.0260 </r>
     <r>    16.4965     0.1148     0.2610     0.2605     0.0000    -0.0002     0.0258 </r>
     <r>    16.5165     0.1180     0.2634     0.2629     0.0000    -0.0002     0.0257 </r>
     <r>    16.5365     0.1212     0.2658     0.2653     0.0000    -0.0002     0.0255 </r>
     <r>    16.5566     0.1244     0.2681     0.2676     0.0000    -0.0002     0.0254 </r>
     <r>    16.5766     0.1275     0.2704     0.2700     0.0000    -0.0002     0.0252 </r>
     <r>    16.5966     0.1307     0.2728     0.2723     0.0000    -0.0002     0.0251 </r>
     <r>    16.6166     0.1338     0.2751     0.2746     0.0000    -0.0002     0.0250 </r>
     <r>    16.6366     0.1369     0.2774     0.2769     0.0000    -0.0002     0.0248 </r>
     <r>    16.6567     0.1399     0.2797     0.2792     0.0000    -0.0002     0.0247 </r>
     <r>    16.6767     0.1430     0.2819     0.2815     0.0000    -0.0001     0.0246 </r>
     <r>    16.6967     0.1460     0.2842     0.2838     0.0000    -0.0001     0.0244 </r>
     <r>    16.7167     0.1491     0.2864     0.2860     0.0000    -0.0001     0.0243 </r>
     <r>    16.7367     0.1521     0.2887     0.2883     0.0000    -0.0001     0.0241 </r>
     <r>    16.7568     0.1550     0.2909     0.2905     0.0000    -0.0001     0.0240 </r>
     <r>    16.7768     0.1580     0.2931     0.2927     0.0000    -0.0001     0.0239 </r>
     <r>    16.7968     0.1610     0.2953     0.2950     0.0000    -0.0001     0.0238 </r>
     <r>    16.8168     0.1639     0.2975     0.2972     0.0000    -0.0001     0.0236 </r>
     <r>    16.8368     0.1668     0.2997     0.2994     0.0000    -0.0001     0.0235 </r>
     <r>    16.8569     0.1697     0.3019     0.3015     0.0000    -0.0001     0.0234 </r>
     <r>    16.8769     0.1726     0.3040     0.3037     0.0000    -0.0001     0.0232 </r>
     <r>    16.8969     0.1754     0.3062     0.3058     0.0000    -0.0001     0.0231 </r>
     <r>    16.9169     0.1783     0.3083     0.3080     0.0000    -0.0001     0.0230 </r>
     <r>    16.9369     0.1811     0.3104     0.3101     0.0000    -0.0001     0.0229 </r>
     <r>    16.9570     0.1839     0.3125     0.3122     0.0000    -0.0001     0.0228 </r>
     <r>    16.9770     0.1867     0.3146     0.3144     0.0000    -0.0001     0.0226 </r>
     <r>    16.9970     0.1895     0.3167     0.3165     0.0000    -0.0001     0.0225 </r>
     <r>    17.0170     0.1922     0.3188     0.3185     0.0000    -0.0001     0.0224 </r>
     <r>    17.0370     0.1950     0.3209     0.3206     0.0000    -0.0001     0.0223 </r>
     <r>    17.0571     0.1977     0.3229     0.3227     0.0000    -0.0001     0.0222 </r>
     <r>    17.0771     0.2004     0.3250     0.3247     0.0000    -0.0001     0.0220 </r>
     <r>    17.0971     0.2031     0.3270     0.3268     0.0000    -0.0001     0.0219 </r>
     <r>    17.1171     0.2058     0.3291     0.3288     0.0000    -0.0001     0.0218 </r>
     <r>    17.1371     0.2084     0.3311     0.3309     0.0000    -0.0001     0.0217 </r>
     <r>    17.1572     0.2111     0.3331     0.3329     0.0000    -0.0001     0.0216 </r>
     <r>    17.1772     0.2137     0.3351     0.3349     0.0000    -0.0001     0.0215 </r>
     <r>    17.1972     0.2163     0.3371     0.3369     0.0000    -0.0001     0.0214 </r>
     <r>    17.2172     0.2189     0.3390     0.3389     0.0000    -0.0001     0.0213 </r>
     <r>    17.2372     0.2215     0.3410     0.3408     0.0000    -0.0001     0.0211 </r>
     <r>    17.2573     0.2241     0.3430     0.3428     0.0000    -0.0001     0.0210 </r>
     <r>    17.2773     0.2266     0.3449     0.3447     0.0000    -0.0001     0.0209 </r>
     <r>    17.2973     0.2292     0.3469     0.3467     0.0000    -0.0001     0.0208 </r>
     <r>    17.3173     0.2317     0.3488     0.3486     0.0000    -0.0001     0.0207 </r>
     <r>    17.3373     0.2342     0.3507     0.3506     0.0000    -0.0001     0.0206 </r>
     <r>    17.3574     0.2367     0.3526     0.3525     0.0000    -0.0001     0.0205 </r>
     <r>    17.3774     0.2392     0.3545     0.3544     0.0000    -0.0001     0.0204 </r>
     <r>    17.3974     0.2417     0.3564     0.3563     0.0000    -0.0001     0.0203 </r>
     <r>    17.4174     0.2441     0.3583     0.3582     0.0000    -0.0001     0.0202 </r>
     <r>    17.4374     0.2466     0.3602     0.3601     0.0000    -0.0001     0.0201 </r>
     <r>    17.4575     0.2490     0.3620     0.3619     0.0000    -0.0001     0.0200 </r>
     <r>    17.4775     0.2514     0.3639     0.3638     0.0000    -0.0001     0.0199 </r>
     <r>    17.4975     0.2538     0.3657     0.3656     0.0000    -0.0000     0.0198 </r>
     <r>    17.5175     0.2562     0.3676     0.3675     0.0000    -0.0000     0.0197 </r>
     <r>    17.5375     0.2586     0.3694     0.3693     0.0000    -0.0000     0.0196 </r>
     <r>    17.5576     0.2610     0.3712     0.3711     0.0000    -0.0000     0.0195 </r>
     <r>    17.5776     0.2633     0.3730     0.3730     0.0000    -0.0000     0.0194 </r>
     <r>    17.5976     0.2657     0.3748     0.3748     0.0000    -0.0000     0.0193 </r>
     <r>    17.6176     0.2680     0.3766     0.3766     0.0000    -0.0000     0.0192 </r>
     <r>    17.6376     0.2703     0.3784     0.3784     0.0000    -0.0000     0.0192 </r>
     <r>    17.6577     0.2726     0.3802     0.3801     0.0000    -0.0000     0.0191 </r>
     <r>    17.6777     0.2749     0.3819     0.3819     0.0000    -0.0000     0.0190 </r>
     <r>    17.6977     0.2772     0.3837     0.3837     0.0000    -0.0000     0.0189 </r>
     <r>    17.7177     0.2794     0.3855     0.3854     0.0000    -0.0000     0.0188 </r>
     <r>    17.7377     0.2817     0.3872     0.3872     0.0000    -0.0000     0.0187 </r>
     <r>    17.7578     0.2839     0.3889     0.3889     0.0000    -0.0000     0.0186 </r>
     <r>    17.7778     0.2862     0.3907     0.3907     0.0000    -0.0000     0.0185 </r>
     <r>    17.7978     0.2884     0.3924     0.3924     0.0000    -0.0000     0.0184 </r>
     <r>    17.8178     0.2906     0.3941     0.3941     0.0000    -0.0000     0.0184 </r>
     <r>    17.8378     0.2928     0.3958     0.3958     0.0000    -0.0000     0.0183 </r>
     <r>    17.8579     0.2950     0.3975     0.3975     0.0000    -0.0000     0.0182 </r>
     <r>    17.8779     0.2971     0.3992     0.3992     0.0000    -0.0000     0.0181 </r>
     <r>    17.8979     0.2993     0.4009     0.4009     0.0000    -0.0000     0.0180 </r>
     <r>    17.9179     0.3014     0.4025     0.4026     0.0000    -0.0000     0.0179 </r>
     <r>    17.9379     0.3036     0.4042     0.4042     0.0000    -0.0000     0.0178 </r>
     <r>    17.9580     0.3057     0.4059     0.4059     0.0000    -0.0000     0.0178 </r>
     <r>    17.9780     0.3078     0.4075     0.4076     0.0000    -0.0000     0.0177 </r>
     <r>    17.9980     0.3099     0.4092     0.4092     0.0000    -0.0000     0.0176 </r>
     <r>    18.0180     0.3120     0.4108     0.4108     0.0000    -0.0000     0.0175 </r>
     <r>    18.0380     0.3141     0.4124     0.4125     0.0000    -0.0000     0.0174 </r>
     <r>    18.0581     0.3162     0.4140     0.4141     0.0000    -0.0000     0.0174 </r>
     <r>    18.0781     0.3182     0.4156     0.4157     0.0000    -0.0000     0.0173 </r>
     <r>    18.0981     0.3203     0.4173     0.4173     0.0000    -0.0000     0.0172 </r>
     <r>    18.1181     0.3223     0.4189     0.4189     0.0000    -0.0000     0.0171 </r>
     <r>    18.1381     0.3244     0.4204     0.4205     0.0000     0.0000     0.0170 </r>
     <r>    18.1582     0.3264     0.4220     0.4221     0.0000     0.0000     0.0170 </r>
     <r>    18.1782     0.3284     0.4236     0.4237     0.0000     0.0000     0.0169 </r>
     <r>    18.1982     0.3304     0.4252     0.4253    -0.0000     0.0000     0.0168 </r>
     <r>    18.2182     0.3324     0.4267     0.4268    -0.0000     0.0000     0.0167 </r>
     <r>    18.2382     0.3344     0.4283     0.4284    -0.0000     0.0000     0.0167 </r>
     <r>    18.2583     0.3363     0.4298     0.4300    -0.0000     0.0000     0.0166 </r>
     <r>    18.2783     0.3383     0.4314     0.4315    -0.0000     0.0000     0.0165 </r>
     <r>    18.2983     0.3403     0.4329     0.4330    -0.0000     0.0000     0.0164 </r>
     <r>    18.3183     0.3422     0.4344     0.4346    -0.0000     0.0000     0.0164 </r>
     <r>    18.3383     0.3441     0.4360     0.4361    -0.0000     0.0000     0.0163 </r>
     <r>    18.3584     0.3460     0.4375     0.4376    -0.0000     0.0000     0.0162 </r>
     <r>    18.3784     0.3480     0.4390     0.4391    -0.0000     0.0000     0.0162 </r>
     <r>    18.3984     0.3499     0.4405     0.4406    -0.0000     0.0000     0.0161 </r>
     <r>    18.4184     0.3518     0.4420     0.4421    -0.0000     0.0000     0.0160 </r>
     <r>    18.4384     0.3536     0.4435     0.4436    -0.0000     0.0000     0.0160 </r>
     <r>    18.4585     0.3555     0.4450     0.4451    -0.0000     0.0000     0.0159 </r>
     <r>    18.4785     0.3574     0.4464     0.4466    -0.0000     0.0000     0.0158 </r>
     <r>    18.4985     0.3592     0.4479     0.4481    -0.0000     0.0000     0.0157 </r>
     <r>    18.5185     0.3611     0.4494     0.4495    -0.0000     0.0000     0.0157 </r>
     <r>    18.5385     0.3629     0.4508     0.4510    -0.0000     0.0000     0.0156 </r>
     <r>    18.5586     0.3648     0.4523     0.4524    -0.0000     0.0000     0.0155 </r>
     <r>    18.5786     0.3666     0.4537     0.4539    -0.0000     0.0000     0.0155 </r>
     <r>    18.5986     0.3684     0.4552     0.4553    -0.0000     0.0000     0.0154 </r>
     <r>    18.6186     0.3702     0.4566     0.4568    -0.0000     0.0000     0.0153 </r>
     <r>    18.6386     0.3720     0.4580     0.4582    -0.0000     0.0000     0.0153 </r>
     <r>    18.6587     0.3738     0.4594     0.4596    -0.0000     0.0000     0.0152 </r>
     <r>    18.6787     0.3756     0.4608     0.4610    -0.0000     0.0000     0.0152 </r>
     <r>    18.6987     0.3773     0.4623     0.4625    -0.0000     0.0000     0.0151 </r>
     <r>    18.7187     0.3791     0.4637     0.4639    -0.0000     0.0000     0.0150 </r>
     <r>    18.7387     0.3809     0.4651     0.4653    -0.0000     0.0000     0.0150 </r>
     <r>    18.7588     0.3826     0.4664     0.4667    -0.0000     0.0000     0.0149 </r>
     <r>    18.7788     0.3843     0.4678     0.4680    -0.0000     0.0000     0.0148 </r>
     <r>    18.7988     0.3861     0.4692     0.4694    -0.0000     0.0000     0.0148 </r>
     <r>    18.8188     0.3878     0.4706     0.4708    -0.0000     0.0000     0.0147 </r>
     <r>    18.8388     0.3895     0.4719     0.4722    -0.0000     0.0000     0.0147 </r>
     <r>    18.8589     0.3912     0.4733     0.4735    -0.0000     0.0000     0.0146 </r>
     <r>    18.8789     0.3929     0.4747     0.4749    -0.0000     0.0000     0.0145 </r>
     <r>    18.8989     0.3946     0.4760     0.4762    -0.0000     0.0000     0.0145 </r>
     <r>    18.9189     0.3963     0.4774     0.4776    -0.0000     0.0000     0.0144 </r>
     <r>    18.9389     0.3980     0.4787     0.4789    -0.0000     0.0000     0.0144 </r>
     <r>    18.9590     0.3996     0.4800     0.4803    -0.0000     0.0000     0.0143 </r>
     <r>    18.9790     0.4013     0.4814     0.4816    -0.0000     0.0000     0.0142 </r>
     <r>    18.9990     0.4029     0.4827     0.4829    -0.0000     0.0000     0.0142 </r>
     <r>    19.0190     0.4046     0.4840     0.4842    -0.0000     0.0000     0.0141 </r>
     <r>    19.0390     0.4062     0.4853     0.4856    -0.0000     0.0000     0.0141 </r>
     <r>    19.0591     0.4078     0.4866     0.4869    -0.0000     0.0000     0.0140 </r>
     <r>    19.0791     0.4095     0.4879     0.4882    -0.0000     0.0000     0.0140 </r>
     <r>    19.0991     0.4111     0.4892     0.4895    -0.0000     0.0000     0.0139 </r>
     <r>    19.1191     0.4127     0.4905     0.4908    -0.0000     0.0000     0.0138 </r>
     <r>    19.1391     0.4143     0.4918     0.4920    -0.0000     0.0000     0.0138 </r>
     <r>    19.1592     0.4159     0.4931     0.4933    -0.0000     0.0000     0.0137 </r>
     <r>    19.1792     0.4175     0.4943     0.4946    -0.0000     0.0000     0.0137 </r>
     <r>    19.1992     0.4190     0.4956     0.4959    -0.0000     0.0000     0.0136 </r>
     <r>    19.2192     0.4206     0.4969     0.4971    -0.0000     0.0000     0.0136 </r>
     <r>    19.2392     0.4222     0.4981     0.4984    -0.0000     0.0001     0.0135 </r>
     <r>    19.2593     0.4237     0.4994     0.4997    -0.0000     0.0001     0.0135 </r>
     <r>    19.2793     0.4253     0.5006     0.5009    -0.0000     0.0001     0.0134 </r>
     <r>    19.2993     0.4268     0.5019     0.5022    -0.0000     0.0001     0.0134 </r>
     <r>    19.3193     0.4284     0.5031     0.5034    -0.0000     0.0001     0.0133 </r>
     <r>    19.3393     0.4299     0.5043     0.5046    -0.0000     0.0001     0.0132 </r>
     <r>    19.3594     0.4314     0.5056     0.5059    -0.0000     0.0001     0.0132 </r>
     <r>    19.3794     0.4329     0.5068     0.5071    -0.0000     0.0001     0.0131 </r>
     <r>    19.3994     0.4344     0.5080     0.5083    -0.0000     0.0001     0.0131 </r>
     <r>    19.4194     0.4360     0.5092     0.5095    -0.0000     0.0001     0.0130 </r>
     <r>    19.4394     0.4374     0.5104     0.5107    -0.0000     0.0001     0.0130 </r>
     <r>    19.4595     0.4389     0.5116     0.5120    -0.0000     0.0001     0.0129 </r>
     <r>    19.4795     0.4404     0.5128     0.5132    -0.0000     0.0001     0.0129 </r>
     <r>    19.4995     0.4419     0.5140     0.5144    -0.0000     0.0001     0.0128 </r>
     <r>    19.5195     0.4434     0.5152     0.5155    -0.0000     0.0001     0.0128 </r>
     <r>    19.5395     0.4448     0.5164     0.5167    -0.0000     0.0001     0.0127 </r>
     <r>    19.5596     0.4463     0.5176     0.5179    -0.0000     0.0001     0.0127 </r>
     <r>    19.5796     0.4477     0.5188     0.5191    -0.0000     0.0001     0.0126 </r>
     <r>    19.5996     0.4492     0.5199     0.5203    -0.0000     0.0001     0.0126 </r>
     <r>    19.6196     0.4506     0.5211     0.5214    -0.0000     0.0001     0.0126 </r>
     <r>    19.6396     0.4521     0.5223     0.5226    -0.0000     0.0001     0.0125 </r>
     <r>    19.6597     0.4535     0.5234     0.5238    -0.0000     0.0001     0.0125 </r>
     <r>    19.6797     0.4549     0.5246     0.5249    -0.0000     0.0001     0.0124 </r>
     <r>    19.6997     0.4563     0.5257     0.5261    -0.0000     0.0001     0.0124 </r>
     <r>    19.7197     0.4577     0.5269     0.5272    -0.0000     0.0001     0.0123 </r>
     <r>    19.7397     0.4591     0.5280     0.5284    -0.0000     0.0001     0.0123 </r>
     <r>    19.7598     0.4605     0.5292     0.5295    -0.0000     0.0001     0.0122 </r>
     <r>    19.7798     0.4619     0.5303     0.5306    -0.0000     0.0001     0.0122 </r>
     <r>    19.7998     0.4633     0.5314     0.5318    -0.0000     0.0001     0.0121 </r>
     <r>    19.8198     0.4647     0.5325     0.5329    -0.0000     0.0001     0.0121 </r>
     <r>    19.8398     0.4661     0.5337     0.5340    -0.0000     0.0001     0.0120 </r>
     <r>    19.8599     0.4674     0.5348     0.5351    -0.0000     0.0001     0.0120 </r>
     <r>    19.8799     0.4688     0.5359     0.5362    -0.0000     0.0001     0.0120 </r>
     <r>    19.8999     0.4701     0.5370     0.5373    -0.0000     0.0001     0.0119 </r>
     <r>    19.9199     0.4715     0.5381     0.5384    -0.0000     0.0001     0.0119 </r>
     <r>    19.9399     0.4728     0.5392     0.5395    -0.0000     0.0001     0.0118 </r>
     <r>    19.9600     0.4742     0.5403     0.5406    -0.0000     0.0001     0.0118 </r>
     <r>    19.9800     0.4755     0.5414     0.5417    -0.0000     0.0001     0.0117 </r>
     <r>    20.0000     0.4768     0.5425     0.5428    -0.0000     0.0001     0.0117 </r>
    </set>
   </array>
  </real>
 </dielectricfunction>
